   4   4   1   0
  0.1129771E+02  0.3178185E-09  0.3178185E-09  0.5166085E-09  0.5000000E-15
   1.0000000000000000E-004
  CAR 
 unknown system                          
     18.25715479    -12.63846242  301      5.49340293      1.00000000
    -12.638  0.0000E+00  0.0000E+00
    -12.535  0.0000E+00  0.0000E+00
    -12.432  0.0000E+00  0.0000E+00
    -12.330  0.0000E+00  0.0000E+00
    -12.227  0.0000E+00  0.0000E+00
    -12.124  0.0000E+00  0.0000E+00
    -12.021  0.0000E+00  0.0000E+00
    -11.918  0.0000E+00  0.0000E+00
    -11.815  0.0000E+00  0.0000E+00
    -11.712  0.0000E+00  0.0000E+00
    -11.609  0.0000E+00  0.0000E+00
    -11.506  0.0000E+00  0.0000E+00
    -11.403  0.0000E+00  0.0000E+00
    -11.300  0.0000E+00  0.0000E+00
    -11.197  0.0000E+00  0.0000E+00
    -11.094  0.0000E+00  0.0000E+00
    -10.991  0.0000E+00  0.0000E+00
    -10.888  0.0000E+00  0.0000E+00
    -10.785  0.0000E+00  0.0000E+00
    -10.682  0.0000E+00  0.0000E+00
    -10.579  0.1573E-01  0.3131E-03
    -10.476  0.1168E+00  0.6334E-02
    -10.373  0.3115E+00  0.2758E-01
    -10.270  0.7427E+00  0.7829E-01
    -10.167  0.1141E+01  0.1760E+00
    -10.064  0.1456E+01  0.3104E+00
     -9.961  0.1683E+01  0.4706E+00
     -9.858  0.1984E+01  0.6592E+00
     -9.755  0.4141E+01  0.9348E+00
     -9.652  0.1249E+02  0.1687E+01
     -9.549  0.7248E+01  0.2805E+01
     -9.446  0.0000E+00  0.4000E+01
     -9.343  0.0000E+00  0.4000E+01
     -9.240  0.0000E+00  0.4000E+01
     -9.137  0.0000E+00  0.4000E+01
     -9.034  0.0000E+00  0.4000E+01
     -8.931  0.0000E+00  0.4000E+01
     -8.828  0.0000E+00  0.4000E+01
     -8.725  0.0000E+00  0.4000E+01
     -8.622  0.0000E+00  0.4000E+01
     -8.519  0.0000E+00  0.4000E+01
     -8.416  0.0000E+00  0.4000E+01
     -8.313  0.0000E+00  0.4000E+01
     -8.210  0.0000E+00  0.4000E+01
     -8.107  0.0000E+00  0.4000E+01
     -8.004  0.0000E+00  0.4000E+01
     -7.901  0.4622E+02  0.7302E+01
     -7.798  0.3430E+02  0.1141E+02
     -7.695  0.8968E+02  0.1612E+02
     -7.592  0.4411E+01  0.2022E+02
     -7.489  0.1049E+01  0.2035E+02
     -7.386  0.1095E+01  0.2046E+02
     -7.283  0.1148E+01  0.2058E+02
     -7.180  0.1271E+01  0.2070E+02
     -7.077  0.1488E+01  0.2084E+02
     -6.974  0.1722E+01  0.2101E+02
     -6.871  0.1956E+01  0.2120E+02
     -6.768  0.2272E+01  0.2142E+02
     -6.665  0.2440E+01  0.2168E+02
     -6.562  0.2338E+01  0.2192E+02
     -6.459  0.2246E+01  0.2216E+02
     -6.356  0.2162E+01  0.2238E+02
     -6.253  0.2952E+01  0.2264E+02
     -6.150  0.3149E+01  0.2299E+02
     -6.047  0.3145E+01  0.2332E+02
     -5.944  0.2898E+01  0.2365E+02
     -5.841  0.2208E+01  0.2395E+02
     -5.738  0.0000E+00  0.2400E+02
     -5.635  0.0000E+00  0.2400E+02
     -5.532  0.0000E+00  0.2400E+02
     -5.429  0.0000E+00  0.2400E+02
     -5.326  0.0000E+00  0.2400E+02
     -5.224  0.0000E+00  0.2400E+02
     -5.121  0.0000E+00  0.2400E+02
     -5.018  0.0000E+00  0.2400E+02
     -4.915  0.0000E+00  0.2400E+02
     -4.812  0.0000E+00  0.2400E+02
     -4.709  0.0000E+00  0.2400E+02
     -4.606  0.0000E+00  0.2400E+02
     -4.503  0.0000E+00  0.2400E+02
     -4.400  0.0000E+00  0.2400E+02
     -4.297  0.0000E+00  0.2400E+02
     -4.194  0.0000E+00  0.2400E+02
     -4.091  0.0000E+00  0.2400E+02
     -3.988  0.0000E+00  0.2400E+02
     -3.885  0.0000E+00  0.2400E+02
     -3.782  0.0000E+00  0.2400E+02
     -3.679  0.0000E+00  0.2400E+02
     -3.576  0.0000E+00  0.2400E+02
     -3.473  0.0000E+00  0.2400E+02
     -3.370  0.0000E+00  0.2400E+02
     -3.267  0.0000E+00  0.2400E+02
     -3.164  0.0000E+00  0.2400E+02
     -3.061  0.0000E+00  0.2400E+02
     -2.958  0.0000E+00  0.2400E+02
     -2.855  0.0000E+00  0.2400E+02
     -2.752  0.0000E+00  0.2400E+02
     -2.649  0.0000E+00  0.2400E+02
     -2.546  0.0000E+00  0.2400E+02
     -2.443  0.0000E+00  0.2400E+02
     -2.340  0.0000E+00  0.2400E+02
     -2.237  0.0000E+00  0.2400E+02
     -2.134  0.0000E+00  0.2400E+02
     -2.031  0.0000E+00  0.2400E+02
     -1.928  0.0000E+00  0.2400E+02
     -1.825  0.0000E+00  0.2400E+02
     -1.722  0.0000E+00  0.2400E+02
     -1.619  0.1036E-02  0.2400E+02
     -1.516  0.8673E-02  0.2400E+02
     -1.413  0.2373E-01  0.2400E+02
     -1.310  0.4622E-01  0.2401E+02
     -1.207  0.7614E-01  0.2401E+02
     -1.104  0.1181E+00  0.2402E+02
     -1.001  0.1803E+01  0.2416E+02
     -0.898  0.2454E+01  0.2438E+02
     -0.795  0.2916E+01  0.2466E+02
     -0.692  0.2597E+01  0.2494E+02
     -0.589  0.2120E+01  0.2518E+02
     -0.486  0.2148E+01  0.2544E+02
     -0.383  0.1979E+01  0.2565E+02
     -0.280  0.2086E+01  0.2586E+02
     -0.177  0.1689E+01  0.2604E+02
     -0.074  0.1682E+01  0.2622E+02
      0.029  0.1672E+01  0.2639E+02
      0.132  0.2040E+01  0.2657E+02
      0.235  0.1154E+01  0.2680E+02
      0.338  0.1040E+01  0.2692E+02
      0.441  0.8127E+00  0.2701E+02
      0.544  0.6889E+00  0.2709E+02
      0.647  0.5929E+00  0.2715E+02
      0.750  0.5175E+00  0.2721E+02
      0.853  0.4629E+00  0.2726E+02
      0.956  0.4290E+00  0.2731E+02
      1.059  0.1461E+01  0.2741E+02
      1.162  0.1341E+01  0.2755E+02
      1.265  0.1260E+01  0.2769E+02
      1.368  0.1234E+01  0.2784E+02
      1.471  0.1247E+01  0.2797E+02
      1.574  0.1255E+01  0.2810E+02
      1.677  0.1258E+01  0.2823E+02
      1.779  0.1257E+01  0.2836E+02
      1.882  0.1356E+01  0.2849E+02
      1.985  0.1484E+01  0.2863E+02
      2.088  0.1624E+01  0.2879E+02
      2.191  0.1803E+01  0.2897E+02
      2.294  0.1931E+01  0.2916E+02
      2.397  0.2071E+01  0.2937E+02
      2.500  0.2709E+01  0.2973E+02
      2.603  0.2585E+01  0.3001E+02
      2.706  0.2478E+01  0.3027E+02
      2.809  0.2371E+01  0.3052E+02
      2.912  0.1855E+01  0.3074E+02
      3.015  0.1966E+01  0.3093E+02
      3.118  0.2065E+01  0.3113E+02
      3.221  0.2630E+01  0.3138E+02
      3.324  0.2454E+01  0.3164E+02
      3.427  0.2426E+01  0.3189E+02
      3.530  0.2595E+01  0.3215E+02
      3.633  0.2744E+01  0.3242E+02
      3.736  0.2803E+01  0.3271E+02
      3.839  0.2834E+01  0.3300E+02
      3.942  0.3798E+01  0.3335E+02
      4.045  0.4022E+01  0.3381E+02
      4.148  0.3458E+01  0.3419E+02
      4.251  0.2738E+01  0.3451E+02
      4.354  0.2410E+01  0.3477E+02
      4.457  0.2131E+01  0.3501E+02
      4.560  0.1829E+01  0.3521E+02
      4.663  0.1594E+01  0.3539E+02
      4.766  0.1410E+01  0.3554E+02
      4.869  0.1226E+01  0.3568E+02
      4.972  0.1029E+01  0.3579E+02
      5.075  0.8167E+00  0.3589E+02
      5.178  0.4814E+00  0.3596E+02
      5.281  0.1822E+00  0.3599E+02
      5.384  0.2557E-01  0.3600E+02
      5.487  0.0000E+00  0.3600E+02
      5.590  0.0000E+00  0.3600E+02
      5.693  0.0000E+00  0.3600E+02
      5.796  0.0000E+00  0.3600E+02
      5.899  0.0000E+00  0.3600E+02
      6.002  0.0000E+00  0.3600E+02
      6.105  0.0000E+00  0.3600E+02
      6.208  0.0000E+00  0.3600E+02
      6.311  0.0000E+00  0.3600E+02
      6.414  0.0000E+00  0.3600E+02
      6.517  0.0000E+00  0.3600E+02
      6.620  0.0000E+00  0.3600E+02
      6.723  0.0000E+00  0.3600E+02
      6.826  0.0000E+00  0.3600E+02
      6.929  0.0000E+00  0.3600E+02
      7.032  0.0000E+00  0.3600E+02
      7.135  0.0000E+00  0.3600E+02
      7.238  0.0000E+00  0.3600E+02
      7.341  0.0000E+00  0.3600E+02
      7.444  0.1227E-04  0.3600E+02
      7.547  0.5305E-03  0.3600E+02
      7.650  0.1811E-02  0.3600E+02
      7.753  0.3855E-02  0.3600E+02
      7.856  0.6661E-02  0.3600E+02
      7.959  0.1023E-01  0.3600E+02
      8.062  0.1456E-01  0.3600E+02
      8.165  0.1966E-01  0.3600E+02
      8.268  0.2551E-01  0.3601E+02
      8.371  0.3213E-01  0.3601E+02
      8.474  0.3952E-01  0.3601E+02
      8.577  0.4766E-01  0.3602E+02
      8.680  0.5657E-01  0.3602E+02
      8.782  0.6624E-01  0.3603E+02
      8.885  0.7668E-01  0.3604E+02
      8.988  0.8787E-01  0.3605E+02
      9.091  0.9983E-01  0.3606E+02
      9.194  0.1385E+00  0.3607E+02
      9.297  0.2018E+00  0.3608E+02
      9.400  0.2527E+00  0.3611E+02
      9.503  0.3084E+00  0.3614E+02
      9.606  0.3722E+00  0.3617E+02
      9.709  0.4440E+00  0.3621E+02
      9.812  0.8014E+00  0.3628E+02
      9.915  0.1038E+01  0.3638E+02
     10.018  0.1281E+01  0.3650E+02
     10.121  0.1374E+01  0.3664E+02
     10.224  0.1426E+01  0.3678E+02
     10.327  0.1460E+01  0.3693E+02
     10.430  0.1477E+01  0.3708E+02
     10.533  0.1472E+01  0.3723E+02
     10.636  0.1446E+01  0.3738E+02
     10.739  0.1628E+01  0.3754E+02
     10.842  0.1803E+01  0.3772E+02
     10.945  0.2751E+01  0.3812E+02
     11.048  0.1458E+01  0.3831E+02
     11.151  0.1395E+01  0.3845E+02
     11.254  0.1728E+01  0.3861E+02
     11.357  0.2311E+01  0.3883E+02
     11.460  0.1930E+01  0.3905E+02
     11.563  0.1568E+01  0.3923E+02
     11.666  0.1226E+01  0.3937E+02
     11.769  0.1045E+01  0.3949E+02
     11.872  0.1117E+01  0.3960E+02
     11.975  0.1306E+01  0.3972E+02
     12.078  0.9011E+00  0.3986E+02
     12.181  0.8143E+00  0.3995E+02
     12.284  0.7221E+00  0.4003E+02
     12.387  0.6245E+00  0.4010E+02
     12.490  0.5055E+00  0.4015E+02
     12.593  0.6184E+00  0.4021E+02
     12.696  0.9943E+00  0.4030E+02
     12.799  0.1247E+01  0.4041E+02
     12.902  0.1455E+01  0.4055E+02
     13.005  0.4855E+01  0.4085E+02
     13.108  0.4102E+01  0.4131E+02
     13.211  0.2761E+01  0.4173E+02
     13.314  0.1346E+01  0.4192E+02
     13.417  0.3625E+01  0.4234E+02
     13.520  0.4294E+01  0.4275E+02
     13.623  0.2970E+01  0.4312E+02
     13.726  0.2110E+01  0.4336E+02
     13.829  0.1718E+01  0.4356E+02
     13.932  0.1194E+01  0.4371E+02
     14.035  0.6167E+00  0.4381E+02
     14.138  0.4328E+00  0.4386E+02
     14.241  0.3202E+00  0.4390E+02
     14.344  0.2440E+00  0.4393E+02
     14.447  0.1764E+00  0.4395E+02
     14.550  0.1197E+00  0.4397E+02
     14.653  0.8000E+00  0.4407E+02
     14.756  0.8905E+00  0.4415E+02
     14.859  0.9728E+00  0.4425E+02
     14.962  0.2857E+01  0.4444E+02
     15.065  0.2568E+01  0.4470E+02
     15.168  0.3352E+01  0.4500E+02
     15.271  0.3819E+01  0.4537E+02
     15.374  0.4004E+01  0.4578E+02
     15.477  0.3810E+01  0.4618E+02
     15.580  0.3501E+01  0.4656E+02
     15.683  0.2928E+01  0.4689E+02
     15.786  0.2409E+01  0.4716E+02
     15.888  0.2522E+01  0.4742E+02
     15.991  0.2190E+01  0.4767E+02
     16.094  0.1813E+01  0.4787E+02
     16.197  0.3300E+00  0.4799E+02
     16.300  0.0000E+00  0.4800E+02
     16.403  0.0000E+00  0.4800E+02
     16.506  0.0000E+00  0.4800E+02
     16.609  0.0000E+00  0.4800E+02
     16.712  0.0000E+00  0.4800E+02
     16.815  0.0000E+00  0.4800E+02
     16.918  0.0000E+00  0.4800E+02
     17.021  0.0000E+00  0.4800E+02
     17.124  0.0000E+00  0.4800E+02
     17.227  0.0000E+00  0.4800E+02
     17.330  0.0000E+00  0.4800E+02
     17.433  0.0000E+00  0.4800E+02
     17.536  0.0000E+00  0.4800E+02
     17.639  0.0000E+00  0.4800E+02
     17.742  0.0000E+00  0.4800E+02
     17.845  0.0000E+00  0.4800E+02
     17.948  0.0000E+00  0.4800E+02
     18.051  0.0000E+00  0.4800E+02
     18.154  0.0000E+00  0.4800E+02
     18.257  0.0000E+00  0.4800E+02
     18.25715479    -12.63846242  301      5.49340293      1.00000000
    -12.638  0.0000E+00  0.0000E+00  0.0000E+00  0.0000E+00  0.0000E+00  0.0000E+00  0.0000E+00  0.0000E+00  0.0000E+00
    -12.535  0.0000E+00  0.0000E+00  0.0000E+00  0.0000E+00  0.0000E+00  0.0000E+00  0.0000E+00  0.0000E+00  0.0000E+00
    -12.432  0.0000E+00  0.0000E+00  0.0000E+00  0.0000E+00  0.0000E+00  0.0000E+00  0.0000E+00  0.0000E+00  0.0000E+00
    -12.330  0.0000E+00  0.0000E+00  0.0000E+00  0.0000E+00  0.0000E+00  0.0000E+00  0.0000E+00  0.0000E+00  0.0000E+00
    -12.227  0.0000E+00  0.0000E+00  0.0000E+00  0.0000E+00  0.0000E+00  0.0000E+00  0.0000E+00  0.0000E+00  0.0000E+00
    -12.124  0.0000E+00  0.0000E+00  0.0000E+00  0.0000E+00  0.0000E+00  0.0000E+00  0.0000E+00  0.0000E+00  0.0000E+00
    -12.021  0.0000E+00  0.0000E+00  0.0000E+00  0.0000E+00  0.0000E+00  0.0000E+00  0.0000E+00  0.0000E+00  0.0000E+00
    -11.918  0.0000E+00  0.0000E+00  0.0000E+00  0.0000E+00  0.0000E+00  0.0000E+00  0.0000E+00  0.0000E+00  0.0000E+00
    -11.815  0.0000E+00  0.0000E+00  0.0000E+00  0.0000E+00  0.0000E+00  0.0000E+00  0.0000E+00  0.0000E+00  0.0000E+00
    -11.712  0.0000E+00  0.0000E+00  0.0000E+00  0.0000E+00  0.0000E+00  0.0000E+00  0.0000E+00  0.0000E+00  0.0000E+00
    -11.609  0.0000E+00  0.0000E+00  0.0000E+00  0.0000E+00  0.0000E+00  0.0000E+00  0.0000E+00  0.0000E+00  0.0000E+00
    -11.506  0.0000E+00  0.0000E+00  0.0000E+00  0.0000E+00  0.0000E+00  0.0000E+00  0.0000E+00  0.0000E+00  0.0000E+00
    -11.403  0.0000E+00  0.0000E+00  0.0000E+00  0.0000E+00  0.0000E+00  0.0000E+00  0.0000E+00  0.0000E+00  0.0000E+00
    -11.300  0.0000E+00  0.0000E+00  0.0000E+00  0.0000E+00  0.0000E+00  0.0000E+00  0.0000E+00  0.0000E+00  0.0000E+00
    -11.197  0.0000E+00  0.0000E+00  0.0000E+00  0.0000E+00  0.0000E+00  0.0000E+00  0.0000E+00  0.0000E+00  0.0000E+00
    -11.094  0.0000E+00  0.0000E+00  0.0000E+00  0.0000E+00  0.0000E+00  0.0000E+00  0.0000E+00  0.0000E+00  0.0000E+00
    -10.991  0.0000E+00  0.0000E+00  0.0000E+00  0.0000E+00  0.0000E+00  0.0000E+00  0.0000E+00  0.0000E+00  0.0000E+00
    -10.888  0.0000E+00  0.0000E+00  0.0000E+00  0.0000E+00  0.0000E+00  0.0000E+00  0.0000E+00  0.0000E+00  0.0000E+00
    -10.785  0.0000E+00  0.0000E+00  0.0000E+00  0.0000E+00  0.0000E+00  0.0000E+00  0.0000E+00  0.0000E+00  0.0000E+00
    -10.682  0.0000E+00  0.0000E+00  0.0000E+00  0.0000E+00  0.0000E+00  0.0000E+00  0.0000E+00  0.0000E+00  0.0000E+00
    -10.579  0.1473E-02  0.3400E-04  0.3295E-04  0.3411E-04  0.1195E-03  0.5115E-04  0.1529E-03  0.5307E-04  0.1161E-03
    -10.476  0.1094E-01  0.2524E-03  0.2446E-03  0.2532E-03  0.8873E-03  0.3798E-03  0.1135E-02  0.3940E-03  0.8619E-03
    -10.373  0.2916E-01  0.6732E-03  0.6523E-03  0.6753E-03  0.2366E-02  0.1013E-02  0.3027E-02  0.1051E-02  0.2299E-02
    -10.270  0.6485E-01  0.1859E-02  0.2326E-02  0.1826E-02  0.6775E-02  0.3140E-02  0.1080E-01  0.3086E-02  0.6885E-02
    -10.167  0.8925E-01  0.3708E-02  0.3953E-02  0.3715E-02  0.1631E-01  0.7310E-02  0.1982E-01  0.7369E-02  0.1620E-01
    -10.064  0.1026E+00  0.5791E-02  0.5051E-02  0.5764E-02  0.2799E-01  0.1255E-01  0.2739E-01  0.1255E-01  0.2794E-01
     -9.961  0.9637E-01  0.8689E-02  0.5326E-02  0.8685E-02  0.4851E-01  0.2180E-01  0.3434E-01  0.2181E-01  0.4851E-01
     -9.858  0.9990E-01  0.1114E-01  0.6201E-02  0.1116E-01  0.6755E-01  0.3030E-01  0.4325E-01  0.3030E-01  0.6759E-01
     -9.755  0.1493E+00  0.2269E-01  0.2021E-01  0.2270E-01  0.1543E+00  0.6936E-01  0.2009E+00  0.6927E-01  0.1545E+00
     -9.652  0.2780E+00  0.7394E-01  0.6656E-01  0.7410E-01  0.5677E+00  0.2623E+00  0.7534E+00  0.2637E+00  0.5647E+00
     -9.549  0.7648E-01  0.3481E-01  0.6003E-01  0.3497E-01  0.2876E+00  0.1429E+00  0.7850E+00  0.1433E+00  0.2874E+00
     -9.446  0.0000E+00  0.0000E+00  0.0000E+00  0.0000E+00  0.0000E+00  0.0000E+00  0.0000E+00  0.0000E+00  0.0000E+00
     -9.343  0.0000E+00  0.0000E+00  0.0000E+00  0.0000E+00  0.0000E+00  0.0000E+00  0.0000E+00  0.0000E+00  0.0000E+00
     -9.240  0.0000E+00  0.0000E+00  0.0000E+00  0.0000E+00  0.0000E+00  0.0000E+00  0.0000E+00  0.0000E+00  0.0000E+00
     -9.137  0.0000E+00  0.0000E+00  0.0000E+00  0.0000E+00  0.0000E+00  0.0000E+00  0.0000E+00  0.0000E+00  0.0000E+00
     -9.034  0.0000E+00  0.0000E+00  0.0000E+00  0.0000E+00  0.0000E+00  0.0000E+00  0.0000E+00  0.0000E+00  0.0000E+00
     -8.931  0.0000E+00  0.0000E+00  0.0000E+00  0.0000E+00  0.0000E+00  0.0000E+00  0.0000E+00  0.0000E+00  0.0000E+00
     -8.828  0.0000E+00  0.0000E+00  0.0000E+00  0.0000E+00  0.0000E+00  0.0000E+00  0.0000E+00  0.0000E+00  0.0000E+00
     -8.725  0.0000E+00  0.0000E+00  0.0000E+00  0.0000E+00  0.0000E+00  0.0000E+00  0.0000E+00  0.0000E+00  0.0000E+00
     -8.622  0.0000E+00  0.0000E+00  0.0000E+00  0.0000E+00  0.0000E+00  0.0000E+00  0.0000E+00  0.0000E+00  0.0000E+00
     -8.519  0.0000E+00  0.0000E+00  0.0000E+00  0.0000E+00  0.0000E+00  0.0000E+00  0.0000E+00  0.0000E+00  0.0000E+00
     -8.416  0.0000E+00  0.0000E+00  0.0000E+00  0.0000E+00  0.0000E+00  0.0000E+00  0.0000E+00  0.0000E+00  0.0000E+00
     -8.313  0.0000E+00  0.0000E+00  0.0000E+00  0.0000E+00  0.0000E+00  0.0000E+00  0.0000E+00  0.0000E+00  0.0000E+00
     -8.210  0.0000E+00  0.0000E+00  0.0000E+00  0.0000E+00  0.0000E+00  0.0000E+00  0.0000E+00  0.0000E+00  0.0000E+00
     -8.107  0.0000E+00  0.0000E+00  0.0000E+00  0.0000E+00  0.0000E+00  0.0000E+00  0.0000E+00  0.0000E+00  0.0000E+00
     -8.004  0.0000E+00  0.0000E+00  0.0000E+00  0.0000E+00  0.0000E+00  0.0000E+00  0.0000E+00  0.0000E+00  0.0000E+00
     -7.901  0.2482E-01  0.4305E-02  0.5125E-02  0.4095E-02  0.4835E+01  0.2894E+01  0.6517E+01  0.2965E+01  0.5177E+01
     -7.798  0.6326E-01  0.4004E-02  0.2431E-02  0.4002E-02  0.3919E+01  0.3446E+01  0.1848E+01  0.3481E+01  0.3930E+01
     -7.695  0.5699E-02  0.2101E-02  0.1790E-02  0.2274E-02  0.7377E+01  0.1149E+02  0.2948E+01  0.1608E+02  0.6316E+01
     -7.592  0.3675E-01  0.1434E-02  0.1662E-02  0.1449E-02  0.2499E+00  0.6065E+00  0.2262E+00  0.7456E+00  0.2233E+00
     -7.489  0.1662E-01  0.1633E-02  0.7511E-03  0.1634E-02  0.7819E-01  0.1152E+00  0.5474E-01  0.1152E+00  0.7790E-01
     -7.386  0.1972E-01  0.2246E-02  0.9282E-03  0.2246E-02  0.8786E-01  0.1056E+00  0.5667E-01  0.1067E+00  0.8740E-01
     -7.283  0.2281E-01  0.2877E-02  0.1108E-02  0.2874E-02  0.9749E-01  0.9799E-01  0.5867E-01  0.9939E-01  0.9711E-01
     -7.180  0.2779E-01  0.3590E-02  0.1843E-02  0.3583E-02  0.1076E+00  0.9224E-01  0.7943E-01  0.9309E-01  0.1075E+00
     -7.077  0.3571E-01  0.4507E-02  0.3666E-02  0.4508E-02  0.1176E+00  0.8473E-01  0.1303E+00  0.8447E-01  0.1177E+00
     -6.974  0.4404E-01  0.5736E-02  0.6003E-02  0.5752E-02  0.1274E+00  0.7393E-01  0.1864E+00  0.7263E-01  0.1277E+00
     -6.871  0.4979E-01  0.8562E-02  0.7159E-02  0.8555E-02  0.1574E+00  0.7090E-01  0.1764E+00  0.6999E-01  0.1579E+00
     -6.768  0.5668E-01  0.1105E-01  0.9107E-02  0.1107E-01  0.1822E+00  0.7359E-01  0.2008E+00  0.7347E-01  0.1822E+00
     -6.665  0.5846E-01  0.1238E-01  0.1098E-01  0.1237E-01  0.1885E+00  0.7805E-01  0.2207E+00  0.7819E-01  0.1882E+00
     -6.562  0.5377E-01  0.1193E-01  0.1214E-01  0.1192E-01  0.1691E+00  0.7342E-01  0.2284E+00  0.7358E-01  0.1689E+00
     -6.459  0.4926E-01  0.1152E-01  0.1340E-01  0.1151E-01  0.1505E+00  0.6920E-01  0.2371E+00  0.6940E-01  0.1503E+00
     -6.356  0.4488E-01  0.1116E-01  0.1472E-01  0.1115E-01  0.1325E+00  0.6535E-01  0.2461E+00  0.6560E-01  0.1324E+00
     -6.253  0.5187E-01  0.1892E-01  0.1985E-01  0.1903E-01  0.1883E+00  0.8895E-01  0.2895E+00  0.8976E-01  0.1867E+00
     -6.150  0.3700E-01  0.2427E-01  0.2665E-01  0.2429E-01  0.1678E+00  0.1003E+00  0.3165E+00  0.9934E-01  0.1694E+00
     -6.047  0.3136E-01  0.2593E-01  0.2606E-01  0.2593E-01  0.1702E+00  0.9937E-01  0.3031E+00  0.9893E-01  0.1710E+00
     -5.944  0.2202E-01  0.2601E-01  0.2303E-01  0.2618E-01  0.1589E+00  0.8980E-01  0.2691E+00  0.9039E-01  0.1576E+00
     -5.841  0.1178E-01  0.2109E-01  0.1778E-01  0.2078E-01  0.1159E+00  0.6759E-01  0.2084E+00  0.6742E-01  0.1161E+00
     -5.738  0.0000E+00  0.0000E+00  0.0000E+00  0.0000E+00  0.0000E+00  0.0000E+00  0.0000E+00  0.0000E+00  0.0000E+00
     -5.635  0.0000E+00  0.0000E+00  0.0000E+00  0.0000E+00  0.0000E+00  0.0000E+00  0.0000E+00  0.0000E+00  0.0000E+00
     -5.532  0.0000E+00  0.0000E+00  0.0000E+00  0.0000E+00  0.0000E+00  0.0000E+00  0.0000E+00  0.0000E+00  0.0000E+00
     -5.429  0.0000E+00  0.0000E+00  0.0000E+00  0.0000E+00  0.0000E+00  0.0000E+00  0.0000E+00  0.0000E+00  0.0000E+00
     -5.326  0.0000E+00  0.0000E+00  0.0000E+00  0.0000E+00  0.0000E+00  0.0000E+00  0.0000E+00  0.0000E+00  0.0000E+00
     -5.224  0.0000E+00  0.0000E+00  0.0000E+00  0.0000E+00  0.0000E+00  0.0000E+00  0.0000E+00  0.0000E+00  0.0000E+00
     -5.121  0.0000E+00  0.0000E+00  0.0000E+00  0.0000E+00  0.0000E+00  0.0000E+00  0.0000E+00  0.0000E+00  0.0000E+00
     -5.018  0.0000E+00  0.0000E+00  0.0000E+00  0.0000E+00  0.0000E+00  0.0000E+00  0.0000E+00  0.0000E+00  0.0000E+00
     -4.915  0.0000E+00  0.0000E+00  0.0000E+00  0.0000E+00  0.0000E+00  0.0000E+00  0.0000E+00  0.0000E+00  0.0000E+00
     -4.812  0.0000E+00  0.0000E+00  0.0000E+00  0.0000E+00  0.0000E+00  0.0000E+00  0.0000E+00  0.0000E+00  0.0000E+00
     -4.709  0.0000E+00  0.0000E+00  0.0000E+00  0.0000E+00  0.0000E+00  0.0000E+00  0.0000E+00  0.0000E+00  0.0000E+00
     -4.606  0.0000E+00  0.0000E+00  0.0000E+00  0.0000E+00  0.0000E+00  0.0000E+00  0.0000E+00  0.0000E+00  0.0000E+00
     -4.503  0.0000E+00  0.0000E+00  0.0000E+00  0.0000E+00  0.0000E+00  0.0000E+00  0.0000E+00  0.0000E+00  0.0000E+00
     -4.400  0.0000E+00  0.0000E+00  0.0000E+00  0.0000E+00  0.0000E+00  0.0000E+00  0.0000E+00  0.0000E+00  0.0000E+00
     -4.297  0.0000E+00  0.0000E+00  0.0000E+00  0.0000E+00  0.0000E+00  0.0000E+00  0.0000E+00  0.0000E+00  0.0000E+00
     -4.194  0.0000E+00  0.0000E+00  0.0000E+00  0.0000E+00  0.0000E+00  0.0000E+00  0.0000E+00  0.0000E+00  0.0000E+00
     -4.091  0.0000E+00  0.0000E+00  0.0000E+00  0.0000E+00  0.0000E+00  0.0000E+00  0.0000E+00  0.0000E+00  0.0000E+00
     -3.988  0.0000E+00  0.0000E+00  0.0000E+00  0.0000E+00  0.0000E+00  0.0000E+00  0.0000E+00  0.0000E+00  0.0000E+00
     -3.885  0.0000E+00  0.0000E+00  0.0000E+00  0.0000E+00  0.0000E+00  0.0000E+00  0.0000E+00  0.0000E+00  0.0000E+00
     -3.782  0.0000E+00  0.0000E+00  0.0000E+00  0.0000E+00  0.0000E+00  0.0000E+00  0.0000E+00  0.0000E+00  0.0000E+00
     -3.679  0.0000E+00  0.0000E+00  0.0000E+00  0.0000E+00  0.0000E+00  0.0000E+00  0.0000E+00  0.0000E+00  0.0000E+00
     -3.576  0.0000E+00  0.0000E+00  0.0000E+00  0.0000E+00  0.0000E+00  0.0000E+00  0.0000E+00  0.0000E+00  0.0000E+00
     -3.473  0.0000E+00  0.0000E+00  0.0000E+00  0.0000E+00  0.0000E+00  0.0000E+00  0.0000E+00  0.0000E+00  0.0000E+00
     -3.370  0.0000E+00  0.0000E+00  0.0000E+00  0.0000E+00  0.0000E+00  0.0000E+00  0.0000E+00  0.0000E+00  0.0000E+00
     -3.267  0.0000E+00  0.0000E+00  0.0000E+00  0.0000E+00  0.0000E+00  0.0000E+00  0.0000E+00  0.0000E+00  0.0000E+00
     -3.164  0.0000E+00  0.0000E+00  0.0000E+00  0.0000E+00  0.0000E+00  0.0000E+00  0.0000E+00  0.0000E+00  0.0000E+00
     -3.061  0.0000E+00  0.0000E+00  0.0000E+00  0.0000E+00  0.0000E+00  0.0000E+00  0.0000E+00  0.0000E+00  0.0000E+00
     -2.958  0.0000E+00  0.0000E+00  0.0000E+00  0.0000E+00  0.0000E+00  0.0000E+00  0.0000E+00  0.0000E+00  0.0000E+00
     -2.855  0.0000E+00  0.0000E+00  0.0000E+00  0.0000E+00  0.0000E+00  0.0000E+00  0.0000E+00  0.0000E+00  0.0000E+00
     -2.752  0.0000E+00  0.0000E+00  0.0000E+00  0.0000E+00  0.0000E+00  0.0000E+00  0.0000E+00  0.0000E+00  0.0000E+00
     -2.649  0.0000E+00  0.0000E+00  0.0000E+00  0.0000E+00  0.0000E+00  0.0000E+00  0.0000E+00  0.0000E+00  0.0000E+00
     -2.546  0.0000E+00  0.0000E+00  0.0000E+00  0.0000E+00  0.0000E+00  0.0000E+00  0.0000E+00  0.0000E+00  0.0000E+00
     -2.443  0.0000E+00  0.0000E+00  0.0000E+00  0.0000E+00  0.0000E+00  0.0000E+00  0.0000E+00  0.0000E+00  0.0000E+00
     -2.340  0.0000E+00  0.0000E+00  0.0000E+00  0.0000E+00  0.0000E+00  0.0000E+00  0.0000E+00  0.0000E+00  0.0000E+00
     -2.237  0.0000E+00  0.0000E+00  0.0000E+00  0.0000E+00  0.0000E+00  0.0000E+00  0.0000E+00  0.0000E+00  0.0000E+00
     -2.134  0.0000E+00  0.0000E+00  0.0000E+00  0.0000E+00  0.0000E+00  0.0000E+00  0.0000E+00  0.0000E+00  0.0000E+00
     -2.031  0.0000E+00  0.0000E+00  0.0000E+00  0.0000E+00  0.0000E+00  0.0000E+00  0.0000E+00  0.0000E+00  0.0000E+00
     -1.928  0.0000E+00  0.0000E+00  0.0000E+00  0.0000E+00  0.0000E+00  0.0000E+00  0.0000E+00  0.0000E+00  0.0000E+00
     -1.825  0.0000E+00  0.0000E+00  0.0000E+00  0.0000E+00  0.0000E+00  0.0000E+00  0.0000E+00  0.0000E+00  0.0000E+00
     -1.722  0.0000E+00  0.0000E+00  0.0000E+00  0.0000E+00  0.0000E+00  0.0000E+00  0.0000E+00  0.0000E+00  0.0000E+00
     -1.619  0.1235E-03  0.1693E-05  0.4919E-04  0.1506E-05  0.7145E-06  0.1068E-05  0.9358E-05  0.1143E-05  0.5014E-06
     -1.516  0.1034E-02  0.1416E-04  0.4116E-03  0.1260E-04  0.5979E-05  0.8934E-05  0.7830E-04  0.9563E-05  0.4195E-05
     -1.413  0.2829E-02  0.3876E-04  0.1127E-02  0.3449E-04  0.1636E-04  0.2445E-04  0.2143E-03  0.2617E-04  0.1148E-04
     -1.310  0.5508E-02  0.7548E-04  0.2194E-02  0.6717E-04  0.3187E-04  0.4762E-04  0.4173E-03  0.5097E-04  0.2236E-04
     -1.207  0.9073E-02  0.1243E-03  0.3614E-02  0.1106E-03  0.5249E-04  0.7843E-04  0.6874E-03  0.8395E-04  0.3683E-04
     -1.104  0.1440E-01  0.2269E-03  0.5371E-02  0.1977E-03  0.1009E-03  0.1291E-03  0.1032E-02  0.1405E-03  0.7096E-04
     -1.001  0.2872E+00  0.1908E-01  0.1370E-01  0.1913E-01  0.6658E-02  0.4843E-02  0.4145E-02  0.5109E-02  0.6158E-02
     -0.898  0.3937E+00  0.2438E-01  0.2086E-01  0.2391E-01  0.8791E-02  0.5865E-02  0.6432E-02  0.5976E-02  0.8665E-02
     -0.795  0.4687E+00  0.2758E-01  0.2647E-01  0.2764E-01  0.1033E-01  0.6312E-02  0.8526E-02  0.6463E-02  0.1017E-01
     -0.692  0.4128E+00  0.2376E-01  0.2735E-01  0.2314E-01  0.8697E-02  0.5791E-02  0.9298E-02  0.5899E-02  0.8635E-02
     -0.589  0.3329E+00  0.1795E-01  0.2519E-01  0.1779E-01  0.7134E-02  0.4798E-02  0.9654E-02  0.4789E-02  0.7176E-02
     -0.486  0.3266E+00  0.1908E-01  0.2541E-01  0.1956E-01  0.7130E-02  0.6870E-02  0.1060E-01  0.6704E-02  0.7290E-02
     -0.383  0.2857E+00  0.1900E-01  0.2439E-01  0.1987E-01  0.6620E-02  0.8094E-02  0.1088E-01  0.7886E-02  0.6922E-02
     -0.280  0.2875E+00  0.2185E-01  0.2549E-01  0.2308E-01  0.7232E-02  0.1020E-01  0.1154E-01  0.9968E-02  0.7640E-02
     -0.177  0.2266E+00  0.1714E-01  0.2476E-01  0.1760E-01  0.5949E-02  0.7629E-02  0.1094E-01  0.7517E-02  0.6105E-02
     -0.074  0.2195E+00  0.1761E-01  0.2593E-01  0.1789E-01  0.6044E-02  0.7784E-02  0.1126E-01  0.7689E-02  0.6166E-02
      0.029  0.2118E+00  0.1809E-01  0.2724E-01  0.1824E-01  0.6114E-02  0.7878E-02  0.1149E-01  0.7800E-02  0.6195E-02
      0.132  0.2405E+00  0.1942E-01  0.4384E-01  0.1970E-01  0.6762E-02  0.8412E-02  0.2209E-01  0.8333E-02  0.6864E-02
      0.235  0.1356E+00  0.1643E-01  0.1767E-01  0.1610E-01  0.4971E-02  0.6505E-02  0.3104E-02  0.6591E-02  0.4795E-02
      0.338  0.1161E+00  0.1525E-01  0.1747E-01  0.1502E-01  0.4907E-02  0.5689E-02  0.3043E-02  0.5811E-02  0.4715E-02
      0.441  0.8389E-01  0.1248E-01  0.1487E-01  0.1231E-01  0.4438E-02  0.4300E-02  0.2791E-02  0.4347E-02  0.4389E-02
      0.544  0.6679E-01  0.1100E-01  0.1308E-01  0.1086E-01  0.4096E-02  0.3562E-02  0.2705E-02  0.3587E-02  0.4089E-02
      0.647  0.5510E-01  0.9742E-02  0.1088E-01  0.9632E-02  0.3848E-02  0.3036E-02  0.2667E-02  0.3052E-02  0.3854E-02
      0.750  0.4588E-01  0.8747E-02  0.9155E-02  0.8661E-02  0.3662E-02  0.2617E-02  0.2653E-02  0.2628E-02  0.3678E-02
      0.853  0.3914E-01  0.8017E-02  0.7897E-02  0.7949E-02  0.3540E-02  0.2306E-02  0.2663E-02  0.2313E-02  0.3562E-02
      0.956  0.3487E-01  0.7553E-02  0.7110E-02  0.7498E-02  0.3480E-02  0.2102E-02  0.2696E-02  0.2108E-02  0.3505E-02
      1.059  0.8618E-01  0.4354E-01  0.2169E-01  0.4314E-01  0.7685E-02  0.6054E-02  0.4381E-02  0.5940E-02  0.7498E-02
      1.162  0.7583E-01  0.3949E-01  0.2069E-01  0.3935E-01  0.7410E-02  0.5587E-02  0.4692E-02  0.5515E-02  0.7193E-02
      1.265  0.6816E-01  0.3668E-01  0.2024E-01  0.3688E-01  0.7265E-02  0.5275E-02  0.4975E-02  0.5249E-02  0.7063E-02
      1.368  0.6181E-01  0.3637E-01  0.2026E-01  0.3628E-01  0.7424E-02  0.5267E-02  0.5287E-02  0.5347E-02  0.7368E-02
      1.471  0.6059E-01  0.3626E-01  0.2167E-01  0.3618E-01  0.7632E-02  0.5245E-02  0.5735E-02  0.5309E-02  0.7577E-02
      1.574  0.5929E-01  0.3599E-01  0.2294E-01  0.3595E-01  0.7831E-02  0.5205E-02  0.6148E-02  0.5252E-02  0.7778E-02
      1.677  0.5791E-01  0.3556E-01  0.2406E-01  0.3557E-01  0.8021E-02  0.5148E-02  0.6525E-02  0.5177E-02  0.7968E-02
      1.779  0.5645E-01  0.3499E-01  0.2503E-01  0.3506E-01  0.8203E-02  0.5073E-02  0.6867E-02  0.5083E-02  0.8150E-02
      1.882  0.5571E-01  0.3721E-01  0.3080E-01  0.3731E-01  0.8790E-02  0.5468E-02  0.7433E-02  0.5563E-02  0.8752E-02
      1.985  0.5642E-01  0.4094E-01  0.3630E-01  0.4077E-01  0.9500E-02  0.6056E-02  0.8088E-02  0.6127E-02  0.9433E-02
      2.088  0.5710E-01  0.4534E-01  0.4136E-01  0.4504E-01  0.1025E-01  0.6712E-02  0.8725E-02  0.6752E-02  0.1017E-01
      2.191  0.5826E-01  0.4926E-01  0.4610E-01  0.4953E-01  0.1098E-01  0.7233E-02  0.1344E-01  0.7244E-02  0.1054E-01
      2.294  0.5722E-01  0.5450E-01  0.5003E-01  0.5497E-01  0.1144E-01  0.7946E-02  0.1328E-01  0.7921E-02  0.1099E-01
      2.397  0.5628E-01  0.6048E-01  0.5355E-01  0.6126E-01  0.1195E-01  0.8746E-02  0.1311E-01  0.8676E-02  0.1152E-01
      2.500  0.6560E-01  0.8295E-01  0.6630E-01  0.8406E-01  0.1678E-01  0.1072E-01  0.1499E-01  0.1080E-01  0.1658E-01
      2.603  0.5903E-01  0.8200E-01  0.5747E-01  0.8306E-01  0.1713E-01  0.1025E-01  0.1276E-01  0.1029E-01  0.1683E-01
      2.706  0.5347E-01  0.8145E-01  0.4938E-01  0.8263E-01  0.1758E-01  0.9830E-02  0.1062E-01  0.9830E-02  0.1723E-01
      2.809  0.4890E-01  0.8045E-01  0.4198E-01  0.8177E-01  0.1802E-01  0.9386E-02  0.8579E-02  0.9355E-02  0.1770E-01
      2.912  0.3386E-01  0.6510E-01  0.2811E-01  0.6558E-01  0.1460E-01  0.7533E-02  0.6095E-02  0.7715E-02  0.1410E-01
      3.015  0.2979E-01  0.6398E-01  0.4176E-01  0.6433E-01  0.1466E-01  0.8046E-02  0.8220E-02  0.8196E-02  0.1412E-01
      3.118  0.2712E-01  0.6266E-01  0.5255E-01  0.6308E-01  0.1504E-01  0.8485E-02  0.1015E-01  0.8682E-02  0.1448E-01
      3.221  0.3318E-01  0.6395E-01  0.9380E-01  0.6588E-01  0.1779E-01  0.1023E-01  0.1833E-01  0.1041E-01  0.1695E-01
      3.324  0.2763E-01  0.6232E-01  0.7814E-01  0.6339E-01  0.1679E-01  0.1133E-01  0.1783E-01  0.1140E-01  0.1619E-01
      3.427  0.2415E-01  0.5994E-01  0.7706E-01  0.6089E-01  0.1615E-01  0.1174E-01  0.2041E-01  0.1175E-01  0.1564E-01