 running on  352 total cores
 distrk:  each k-point on  352 cores,    1 groups
 distr:  one band on    4 cores,   88 groups
 using from now: INCAR     
 vasp.5.4.4.18Apr17-6-g9f103f2a35 (build Sep 13 2022 11:49:33) complex          
  
 POSCAR found type information on POSCAR  Ga N  C 
 POSCAR found :  3 types and      96 ions
 scaLAPACK will be used

 ----------------------------------------------------------------------------- 
|                                                                             |
|           W    W    AA    RRRRR   N    N  II  N    N   GGGG   !!!           |
|           W    W   A  A   R    R  NN   N  II  NN   N  G    G  !!!           |
|           W    W  A    A  R    R  N N  N  II  N N  N  G       !!!           |
|           W WW W  AAAAAA  RRRRR   N  N N  II  N  N N  G  GGG   !            |
|           WW  WW  A    A  R   R   N   NN  II  N   NN  G    G                |
|           W    W  A    A  R    R  N    N  II  N    N   GGGG   !!!           |
|                                                                             |
|      For optimal performance we recommend to set                            |
|        NCORE= 4 - approx SQRT( number of cores)                             |
|      NCORE specifies how many cores store one orbital (NPAR=cpu/NCORE).     |
|      This setting can  greatly improve the performance of VASP for DFT.     |
|      The default,   NCORE=1            might be grossly inefficient         |
|      on modern multi-core architectures or massively parallel machines.     |
|      Do your own testing !!!!                                               |
|      Unfortunately you need to use the default for GW and RPA calculations. |
|      (for HF NCORE is supported but not extensively tested yet)             |
|                                                                             |
 ----------------------------------------------------------------------------- 


 ----------------------------------------------------------------------------- 
|                                                                             |
|  ADVICE TO THIS USER RUNNING 'VASP/VAMP'   (HEAR YOUR MASTER'S VOICE ...):  |
|                                                                             |
|      You have a (more or less) 'large supercell' and for larger cells       |
|      it might be more efficient to use real space projection opertators     |
|      So try LREAL= Auto  in the INCAR   file.                               |
|      Mind:          For very  accurate calculation you might also keep the  |
|      reciprocal projection scheme          (i.e. LREAL=.FALSE.)             |
|                                                                             |
 ----------------------------------------------------------------------------- 

 LDA part: xc-table for Pade appr. of Perdew
 found WAVECAR, reading the header
 POSCAR, INCAR and KPOINTS ok, starting setup
 FFT: planning ...
 reading WAVECAR
 the WAVECAR file was read successfully
 charge-density read from file: unknown                                 
 magnetization density read from file 1
 initial charge from wavefunction
 entering main loop
       N       E                     dE             d eps       ncg     rms          ort
 gam= 0.000 g(H,U,f)=  0.292E-05 0.190E-07 0.000E+00 ort(H,U,f) = 0.000E+00 0.000E+00 0.000E+00
SDA:   1    -0.730292107904E+03   -0.73029E+03   -0.14673E-05   616   0.293E-05 0.000E+00
 gam= 0.333 g(H,U,f)=  0.600E-05 0.124E-07 0.000E+00 ort(H,U,f) =-0.402E-05 0.153E-07 0.000E+00
DMP:   2    -0.730292107637E+03    0.26711E-06   -0.23390E-05   616   0.601E-05-0.400E-05
 gam= 0.333 g(H,U,f)=  0.477E-05 0.685E-08 0.000E+00 ort(H,U,f) =-0.411E-05 0.129E-07 0.000E+00
DMP:   3    -0.730292107782E+03   -0.14503E-06   -0.17055E-05   616   0.478E-05-0.409E-05
 gam= 0.333 g(H,U,f)=  0.294E-05 0.350E-08 0.000E+00 ort(H,U,f) =-0.261E-05 0.786E-08 0.000E+00
DMP:   4    -0.730292107984E+03   -0.20275E-06   -0.10364E-05   616   0.294E-05-0.260E-05
 gam= 0.333 g(H,U,f)=  0.189E-05 0.169E-08 0.000E+00 ort(H,U,f) =-0.159E-05 0.422E-08 0.000E+00
DMP:   5    -0.730292108104E+03   -0.11959E-06   -0.68172E-06   616   0.189E-05-0.159E-05
 final diagonalization
   1 F= -.73029211E+03 E0= -.73029211E+03  d E =-.730292E+03  mag=     1.0000
 BRION: g(F)=  0.566E-06 g(S)=  0.000E+00
 bond charge predicted
 writing wavefunctions
       N       E                     dE             d eps       ncg     rms          ort
 gam= 0.000 g(H,U,f)=  0.225E-04 0.109E-05 0.000E+00 ort(H,U,f) = 0.000E+00 0.000E+00 0.000E+00
SDA:   1    -0.730292096990E+03    0.10994E-04   -0.11793E-04   616   0.236E-04 0.000E+00
 gam= 0.333 g(H,U,f)=  0.907E-05 0.294E-06 0.000E+00 ort(H,U,f) = 0.745E-05 0.492E-06 0.000E+00
DMP:   2    -0.730292104871E+03   -0.78803E-05   -0.60036E-05   616   0.936E-05 0.794E-05
 gam= 0.333 g(H,U,f)=  0.476E-05 0.103E-06 0.000E+00 ort(H,U,f) =-0.827E-06 0.187E-06 0.000E+00
DMP:   3    -0.730292107715E+03   -0.28443E-05   -0.23245E-05   616   0.486E-05-0.639E-06
 gam= 0.333 g(H,U,f)=  0.375E-05 0.405E-07 0.000E+00 ort(H,U,f) =-0.262E-05 0.887E-07 0.000E+00
DMP:   4    -0.730292108247E+03   -0.53168E-06   -0.14720E-05   616   0.379E-05-0.253E-05
 gam= 0.333 g(H,U,f)=  0.409E-05 0.184E-07 0.000E+00 ort(H,U,f) =-0.276E-05 0.425E-07 0.000E+00
DMP:   5    -0.730292108302E+03   -0.55043E-07   -0.16012E-05   616   0.411E-05-0.272E-05
 final diagonalization
   2 F= -.73029211E+03 E0= -.73029211E+03  d E =-.197517E-06  mag=     1.0000
 BRION: g(F)=  0.229E-05 g(S)=  0.000E+00 retain N=  1 mean eig= 0.69
 eig:   0.687
 bond charge predicted
 writing wavefunctions
       N       E                     dE             d eps       ncg     rms          ort
 gam= 0.000 g(H,U,f)=  0.483E-04 0.241E-05 0.000E+00 ort(H,U,f) = 0.000E+00 0.000E+00 0.000E+00
SDA:   1    -0.730292083176E+03    0.25071E-04   -0.25368E-04   616   0.507E-04 0.000E+00
 gam= 0.333 g(H,U,f)=  0.211E-04 0.633E-06 0.000E+00 ort(H,U,f) = 0.137E-04 0.113E-05 0.000E+00
DMP:   2    -0.730292099563E+03   -0.16387E-04   -0.13358E-04   616   0.218E-04 0.148E-04
 gam= 0.333 g(H,U,f)=  0.893E-05 0.160E-06 0.000E+00 ort(H,U,f) =-0.165E-05 0.365E-06 0.000E+00
DMP:   3    -0.730292105922E+03   -0.63598E-05   -0.43319E-05   616   0.909E-05-0.129E-05
 gam= 0.333 g(H,U,f)=  0.447E-05 0.589E-07 0.000E+00 ort(H,U,f) =-0.359E-05 0.126E-06 0.000E+00
DMP:   4    -0.730292107225E+03   -0.13027E-05   -0.16875E-05   616   0.453E-05-0.346E-05
 gam= 0.333 g(H,U,f)=  0.285E-05 0.282E-07 0.000E+00 ort(H,U,f) =-0.222E-05 0.602E-07 0.000E+00
DMP:   5    -0.730292107525E+03   -0.29952E-06   -0.10786E-05   616   0.288E-05-0.216E-05
 final diagonalization
   3 F= -.73029211E+03 E0= -.73029211E+03  d E =0.776934E-06  mag=     1.0000
 BRION: g(F)=  0.515E-06 g(S)=  0.000E+00 retain N=  1 mean eig= 0.48
 eig:   0.476
 bond charge predicted
 writing wavefunctions
       N       E                     dE             d eps       ncg     rms          ort
 gam= 0.000 g(H,U,f)=  0.908E-05 0.333E-06 0.000E+00 ort(H,U,f) = 0.000E+00 0.000E+00 0.000E+00
SDA:   1    -0.730292104220E+03    0.30047E-05   -0.47044E-05   616   0.941E-05 0.000E+00
 gam= 0.333 g(H,U,f)=  0.640E-05 0.594E-07 0.000E+00 ort(H,U,f) = 0.292E-06 0.109E-06 0.000E+00
DMP:   2    -0.730292106670E+03   -0.24496E-05   -0.32981E-05   616   0.646E-05 0.401E-06
 gam= 0.333 g(H,U,f)=  0.411E-05 0.204E-07 0.000E+00 ort(H,U,f) =-0.243E-05 0.218E-07 0.000E+00
DMP:   3    -0.730292107719E+03   -0.10487E-05   -0.16619E-05   616   0.413E-05-0.241E-05
 gam= 0.333 g(H,U,f)=  0.281E-05 0.505E-08 0.000E+00 ort(H,U,f) =-0.226E-05 0.966E-08 0.000E+00
DMP:   4    -0.730292107988E+03   -0.26893E-06   -0.10317E-05   616   0.281E-05-0.225E-05
 gam= 0.333 g(H,U,f)=  0.234E-05 0.220E-08 0.000E+00 ort(H,U,f) =-0.177E-05 0.303E-08 0.000E+00
DMP:   5    -0.730292108061E+03   -0.72952E-07   -0.87848E-06   616   0.234E-05-0.176E-05
 final diagonalization
   4 F= -.73029211E+03 E0= -.73029211E+03  d E =-.536013E-06  mag=     1.0000
 BRION: g(F)=  0.241E-05 g(S)=  0.000E+00 retain N=  1 mean eig= 0.15
 eig:   0.153
 bond charge predicted
 writing wavefunctions
       N       E                     dE             d eps       ncg     rms          ort
 gam= 0.000 g(H,U,f)=  0.568E-05 0.176E-06 0.000E+00 ort(H,U,f) = 0.000E+00 0.000E+00 0.000E+00
SDA:   1    -0.730292105979E+03    0.20085E-05   -0.29262E-05   616   0.585E-05 0.000E+00
 gam= 0.333 g(H,U,f)=  0.577E-05 0.515E-07 0.000E+00 ort(H,U,f) =-0.169E-05 0.865E-07 0.000E+00
DMP:   2    -0.730292107041E+03   -0.10613E-05   -0.26430E-05   616   0.582E-05-0.160E-05
 gam= 0.333 g(H,U,f)=  0.459E-05 0.162E-07 0.000E+00 ort(H,U,f) =-0.339E-05 0.338E-07 0.000E+00
DMP:   3    -0.730292107526E+03   -0.48507E-06   -0.17430E-05   616   0.460E-05-0.335E-05
 gam= 0.333 g(H,U,f)=  0.277E-05 0.664E-08 0.000E+00 ort(H,U,f) =-0.241E-05 0.143E-07 0.000E+00
DMP:   4    -0.730292107797E+03   -0.27121E-06   -0.98685E-06   616   0.277E-05-0.240E-05
 gam= 0.333 g(H,U,f)=  0.196E-05 0.314E-08 0.000E+00 ort(H,U,f) =-0.162E-05 0.711E-08 0.000E+00
DMP:   5    -0.730292107887E+03   -0.90298E-07   -0.71245E-06   616   0.196E-05-0.161E-05
 final diagonalization
   5 F= -.73029211E+03 E0= -.73029211E+03  d E =0.173575E-06  mag=     1.0000
 BRION: g(F)=  0.384E-06 g(S)=  0.000E+00 retain N=  1 mean eig= 0.23
 eig:   0.226
 bond charge predicted
 writing wavefunctions
       N       E                     dE             d eps       ncg     rms          ort
 gam= 0.000 g(H,U,f)=  0.599E-05 0.236E-06 0.000E+00 ort(H,U,f) = 0.000E+00 0.000E+00 0.000E+00
SDA:   1    -0.730292105426E+03    0.23712E-05   -0.31121E-05   616   0.622E-05 0.000E+00
 gam= 0.333 g(H,U,f)=  0.501E-05 0.634E-07 0.000E+00 ort(H,U,f) =-0.517E-06 0.984E-07 0.000E+00
DMP:   2    -0.730292106877E+03   -0.14513E-05   -0.24692E-05   616   0.508E-05-0.419E-06
 gam= 0.333 g(H,U,f)=  0.424E-05 0.282E-07 0.000E+00 ort(H,U,f) =-0.266E-05 0.443E-07 0.000E+00
DMP:   3    -0.730292107457E+03   -0.57999E-06   -0.16995E-05   616   0.427E-05-0.262E-05
 gam= 0.333 g(H,U,f)=  0.391E-05 0.112E-07 0.000E+00 ort(H,U,f) =-0.290E-05 0.252E-07 0.000E+00
DMP:   4    -0.730292107589E+03   -0.13184E-06   -0.14813E-05   616   0.392E-05-0.287E-05
 gam= 0.333 g(H,U,f)=  0.402E-05 0.524E-08 0.000E+00 ort(H,U,f) =-0.286E-05 0.122E-07 0.000E+00
DMP:   5    -0.730292107616E+03   -0.27641E-07   -0.15380E-05   616   0.403E-05-0.285E-05
 final diagonalization
   6 F= -.73029211E+03 E0= -.73029211E+03  d E =0.270760E-06  mag=     1.0000
 BRION: g(F)=  0.908E-06 g(S)=  0.000E+00 retain N=  2 mean eig= 2.31
 eig:   0.209  4.405
 bond charge predicted
 writing wavefunctions
       N       E                     dE             d eps       ncg     rms          ort
 gam= 0.000 g(H,U,f)=  0.824E-05 0.145E-06 0.000E+00 ort(H,U,f) = 0.000E+00 0.000E+00 0.000E+00
SDA:   1    -0.730292105525E+03    0.20636E-05   -0.41903E-05   616   0.838E-05 0.000E+00
 gam= 0.333 g(H,U,f)=  0.995E-05 0.392E-07 0.000E+00 ort(H,U,f) =-0.444E-05 0.658E-07 0.000E+00
DMP:   2    -0.730292106526E+03   -0.10012E-05   -0.42676E-05   616   0.999E-05-0.438E-05
 gam= 0.333 g(H,U,f)=  0.668E-05 0.124E-07 0.000E+00 ort(H,U,f) =-0.552E-05 0.237E-07 0.000E+00
DMP:   3    -0.730292107286E+03   -0.75969E-06   -0.24304E-05   616   0.669E-05-0.550E-05
 gam= 0.333 g(H,U,f)=  0.315E-05 0.451E-08 0.000E+00 ort(H,U,f) =-0.298E-05 0.980E-08 0.000E+00
DMP:   4    -0.730292107759E+03   -0.47293E-06   -0.10799E-05   616   0.315E-05-0.297E-05
 gam= 0.333 g(H,U,f)=  0.181E-05 0.210E-08 0.000E+00 ort(H,U,f) =-0.156E-05 0.454E-08 0.000E+00
DMP:   5    -0.730292107910E+03   -0.15103E-06   -0.64807E-06   616   0.181E-05-0.155E-05
 final diagonalization
   7 F= -.73029211E+03 E0= -.73029211E+03  d E =-.293589E-06  mag=     1.0000
 BRION: g(F)=  0.136E-05 g(S)=  0.000E+00 retain N=  3 mean eig= 2.79
 eig:   7.038  0.178  1.156
 bond charge predicted
 writing wavefunctions
       N       E                     dE             d eps       ncg     rms          ort
 gam= 0.000 g(H,U,f)=  0.229E-05 0.539E-07 0.000E+00 ort(H,U,f) = 0.000E+00 0.000E+00 0.000E+00
SDA:   1    -0.730292107357E+03    0.40232E-06   -0.11734E-05   616   0.235E-05 0.000E+00
 gam= 0.333 g(H,U,f)=  0.339E-05 0.111E-07 0.000E+00 ort(H,U,f) =-0.164E-05 0.192E-07 0.000E+00
DMP:   2    -0.730292107539E+03   -0.18207E-06   -0.14327E-05   616   0.340E-05-0.162E-05
 gam= 0.333 g(H,U,f)=  0.329E-05 0.426E-08 0.000E+00 ort(H,U,f) =-0.246E-05 0.554E-08 0.000E+00
DMP:   3    -0.730292107642E+03   -0.10342E-06   -0.12397E-05   616   0.330E-05-0.246E-05
 gam= 0.333 g(H,U,f)=  0.267E-05 0.136E-08 0.000E+00 ort(H,U,f) =-0.212E-05 0.291E-08 0.000E+00
DMP:   4    -0.730292107732E+03   -0.89465E-07   -0.98246E-06   616   0.267E-05-0.212E-05
 gam= 0.333 g(H,U,f)=  0.237E-05 0.631E-09 0.000E+00 ort(H,U,f) =-0.180E-05 0.127E-08 0.000E+00
DMP:   5    -0.730292107773E+03   -0.40985E-07   -0.88308E-06   616   0.237E-05-0.180E-05
 final diagonalization
   8 F= -.73029211E+03 E0= -.73029211E+03  d E =0.137410E-06  mag=     1.0000
 BRION: g(F)=  0.676E-06 g(S)=  0.000E+00 retain N=  1 mean eig= 0.14
 eig:   0.144
 bond charge predicted
 writing wavefunctions
       N       E                     dE             d eps       ncg     rms          ort
 gam= 0.000 g(H,U,f)=  0.199E-04 0.100E-05 0.000E+00 ort(H,U,f) = 0.000E+00 0.000E+00 0.000E+00
SDA:   1    -0.730292098555E+03    0.91764E-05   -0.10452E-04   616   0.209E-04 0.000E+00
 gam= 0.333 g(H,U,f)=  0.975E-05 0.269E-06 0.000E+00 ort(H,U,f) = 0.451E-05 0.485E-06 0.000E+00
DMP:   2    -0.730292105028E+03   -0.64732E-05   -0.58445E-05   616   0.100E-04 0.500E-05
 gam= 0.333 g(H,U,f)=  0.628E-05 0.691E-07 0.000E+00 ort(H,U,f) =-0.267E-05 0.160E-06 0.000E+00
DMP:   3    -0.730292107327E+03   -0.22983E-05   -0.27545E-05   616   0.634E-05-0.251E-05
 gam= 0.333 g(H,U,f)=  0.459E-05 0.287E-07 0.000E+00 ort(H,U,f) =-0.353E-05 0.603E-07 0.000E+00
DMP:   4    -0.730292107837E+03   -0.51025E-06   -0.17332E-05   616   0.462E-05-0.347E-05
 gam= 0.333 g(H,U,f)=  0.426E-05 0.134E-07 0.000E+00 ort(H,U,f) =-0.313E-05 0.308E-07 0.000E+00
DMP:   5    -0.730292107928E+03   -0.91219E-07   -0.16178E-05   616   0.427E-05-0.310E-05
 final diagonalization
   9 F= -.73029211E+03 E0= -.73029211E+03  d E =-.155618E-06  mag=     1.0000
 BRION: g(F)=  0.258E-05 g(S)=  0.000E+00 retain N=  2 mean eig= 0.42
 eig:   0.190  0.641
 bond charge predicted
 writing wavefunctions
       N       E                     dE             d eps       ncg     rms          ort
 gam= 0.000 g(H,U,f)=  0.569E-04 0.305E-05 0.000E+00 ort(H,U,f) = 0.000E+00 0.000E+00 0.000E+00
SDA:   1    -0.730292077611E+03    0.30226E-04   -0.29956E-04   616   0.599E-04 0.000E+00
 gam= 0.333 g(H,U,f)=  0.233E-04 0.848E-06 0.000E+00 ort(H,U,f) = 0.183E-04 0.153E-05 0.000E+00
DMP:   2    -0.730292097537E+03   -0.19926E-04   -0.15385E-04   616   0.242E-04 0.198E-04
 gam= 0.333 g(H,U,f)=  0.105E-04 0.198E-06 0.000E+00 ort(H,U,f) =-0.117E-05 0.503E-06 0.000E+00
DMP:   3    -0.730292105067E+03   -0.75305E-05   -0.52282E-05   616   0.107E-04-0.665E-06
 gam= 0.333 g(H,U,f)=  0.676E-05 0.778E-07 0.000E+00 ort(H,U,f) =-0.495E-05 0.164E-06 0.000E+00
DMP:   4    -0.730292106486E+03   -0.14186E-05   -0.26201E-05   616   0.684E-05-0.479E-05
 gam= 0.333 g(H,U,f)=  0.560E-05 0.378E-07 0.000E+00 ort(H,U,f) =-0.410E-05 0.823E-07 0.000E+00
DMP:   5    -0.730292106789E+03   -0.30307E-06   -0.21513E-05   616   0.564E-05-0.401E-05
 final diagonalization
  10 F= -.73029211E+03 E0= -.73029211E+03  d E =0.113899E-05  mag=     1.0000
 BRION: g(F)=  0.917E-06 g(S)=  0.000E+00 retain N=  1 mean eig= 0.50
 eig:   0.503
 bond charge predicted
 writing wavefunctions
       N       E                     dE             d eps       ncg     rms          ort
 gam= 0.000 g(H,U,f)=  0.244E-04 0.106E-05 0.000E+00 ort(H,U,f) = 0.000E+00 0.000E+00 0.000E+00
SDA:   1    -0.730292096960E+03    0.95263E-05   -0.12708E-04   616   0.254E-04 0.000E+00
 gam= 0.333 g(H,U,f)=  0.167E-04 0.266E-06 0.000E+00 ort(H,U,f) = 0.121E-05 0.468E-06 0.000E+00
DMP:   2    -0.730292103731E+03   -0.67709E-05   -0.87806E-05   616   0.170E-04 0.168E-05
 gam= 0.333 g(H,U,f)=  0.114E-04 0.787E-07 0.000E+00 ort(H,U,f) =-0.683E-05 0.151E-06 0.000E+00
DMP:   3    -0.730292106454E+03   -0.27234E-05   -0.46395E-05   616   0.115E-04-0.668E-05
 gam= 0.333 g(H,U,f)=  0.687E-05 0.282E-07 0.000E+00 ort(H,U,f) =-0.584E-05 0.600E-07 0.000E+00
DMP:   4    -0.730292107330E+03   -0.87595E-06   -0.24843E-05   616   0.690E-05-0.578E-05
 gam= 0.333 g(H,U,f)=  0.474E-05 0.133E-07 0.000E+00 ort(H,U,f) =-0.389E-05 0.279E-07 0.000E+00
DMP:   5    -0.730292107604E+03   -0.27424E-06   -0.17353E-05   616   0.476E-05-0.386E-05
 final diagonalization
  11 F= -.73029211E+03 E0= -.73029211E+03  d E =-.815176E-06  mag=     1.0000
 BRION: g(F)=  0.387E-05 g(S)=  0.000E+00 retain N=  1 mean eig= 0.19
 eig:   0.195
 bond charge predicted
 writing wavefunctions
       N       E                     dE             d eps       ncg     rms          ort
 gam= 0.000 g(H,U,f)=  0.151E-04 0.641E-06 0.000E+00 ort(H,U,f) = 0.000E+00 0.000E+00 0.000E+00
SDA:   1    -0.730292101054E+03    0.62756E-05   -0.78830E-05   616   0.158E-04 0.000E+00
 gam= 0.333 g(H,U,f)=  0.119E-04 0.209E-06 0.000E+00 ort(H,U,f) =-0.390E-06 0.343E-06 0.000E+00
DMP:   2    -0.730292104981E+03   -0.39270E-05   -0.60562E-05   616   0.121E-04-0.463E-07
 gam= 0.333 g(H,U,f)=  0.958E-05 0.669E-07 0.000E+00 ort(H,U,f) =-0.600E-05 0.148E-06 0.000E+00
DMP:   3    -0.730292106551E+03   -0.15699E-05   -0.38461E-05   616   0.964E-05-0.585E-05
 gam= 0.333 g(H,U,f)=  0.744E-05 0.292E-07 0.000E+00 ort(H,U,f) =-0.587E-05 0.641E-07 0.000E+00
DMP:   4    -0.730292107021E+03   -0.46984E-06   -0.27655E-05   616   0.747E-05-0.581E-05
 gam= 0.333 g(H,U,f)=  0.665E-05 0.140E-07 0.000E+00 ort(H,U,f) =-0.495E-05 0.329E-07 0.000E+00
DMP:   5    -0.730292107174E+03   -0.15254E-06   -0.25102E-05   616   0.666E-05-0.492E-05
 final diagonalization
=>> PBS: job killed: walltime 3628 exceeded limit 3600
aprun: Apid 37296564: Caught signal Terminated, sending to application
forrtl: error (78): process killed (SIGTERM)
Image              PC                Routine            Line        Source             
vasp_std           0000000021190B5B  for__signal_handl     Unknown  Unknown
libpthread-2.26.s  000014B718D10350  Unknown               Unknown  Unknown
vasp_std           00000000203874A2  Unknown               Unknown  Unknown
vasp_std           0000000020393FFB  Unknown               Unknown  Unknown
vasp_std           000000002045D6A0  Unknown               Unknown  Unknown
vasp_std           00000000209C30FB  Unknown               Unknown  Unknown
vasp_std           0000000021113CF3  Unknown               Unknown  Unknown
vasp_std           0000000020010252  Unknown               Unknown  Unknown
libc-2.26.so       000014B7162E83EA  __libc_start_main     Unknown  Unknown
vasp_std           000000002001016A  Unknown               Unknown  Unknown
forrtl: error (78): process killed (SIGTERM)
Image              PC                Routine            Line        Source             
vasp_std           0000000021190B5B  for__signal_handl     Unknown  Unknown
libpthread-2.26.s  000014B718D10350  Unknown               Unknown  Unknown
vasp_std           00000000203879F2  Unknown               Unknown  Unknown
vasp_std           0000000020393FFB  Unknown               Unknown  Unknown
vasp_std           000000002045D6A0  Unknown               Unknown  Unknown
vasp_std           00000000209C30FB  Unknown               Unknown  Unknown
vasp_std           0000000021113CF3  Unknown               Unknown  Unknown
vasp_std           0000000020010252  Unknown               Unknown  Unknown
libc-2.26.so       000014B7162E83EA  __libc_start_main     Unknown  Unknown
vasp_std           000000002001016A  Unknown               Unknown  Unknown
forrtl: error (78): process killed (SIGTERM)
Image              PC                Routine            Line        Source             
vasp_std           0000000021190B5B  for__signal_handl     Unknown  Unknown
libpthread-2.26.s  000014B718D10350  Unknown               Unknown  Unknown
vasp_std           000000002038785E  Unknown               Unknown  Unknown
vasp_std           0000000020393FFB  Unknown               Unknown  Unknown
vasp_std           000000002045D6A0  Unknown               Unknown  Unknown
vasp_std           00000000209C30FB  Unknown               Unknown  Unknown
vasp_std           0000000021113CF3  Unknown               Unknown  Unknown
vasp_std           0000000020010252  Unknown               Unknown  Unknown
libc-2.26.so       000014B7162E83EA  __libc_start_main     Unknown  Unknown
vasp_std           000000002001016A  Unknown               Unknown  Unknown
forrtl: error (78): process killed (SIGTERM)
Image              PC                Routine            Line        Source             
vasp_std           0000000021190B5B  for__signal_handl     Unknown  Unknown
libpthread-2.26.s  000014B718D10350  Unknown               Unknown  Unknown
vasp_std           00000000203874BC  Unknown               Unknown  Unknown
vasp_std           0000000020393FFB  Unknown               Unknown  Unknown
vasp_std           000000002045D6A0  Unknown               Unknown  Unknown
vasp_std           00000000209C30FB  Unknown               Unknown  Unknown
vasp_std           0000000021113CF3  Unknown               Unknown  Unknown
vasp_std           0000000020010252  Unknown               Unknown  Unknown
libc-2.26.so       000014B7162E83EA  __libc_start_main     Unknown  Unknown
vasp_std           000000002001016A  Unknown               Unknown  Unknown
forrtl: error (78): process killed (SIGTERM)
Image              PC                Routine            Line        Source             
vasp_std           0000000021190B5B  for__signal_handl     Unknown  Unknown
libpthread-2.26.s  000014B718D10350  Unknown               Unknown  Unknown
vasp_std           0000000020387B44  Unknown               Unknown  Unknown
vasp_std           0000000020393FFB  Unknown               Unknown  Unknown
vasp_std           000000002045D6A0  Unknown               Unknown  Unknown
vasp_std           00000000209C30FB  Unknown               Unknown  Unknown
vasp_std           0000000021113CF3  Unknown               Unknown  Unknown
vasp_std           0000000020010252  Unknown               Unknown  Unknown
libc-2.26.so       000014B7162E83EA  __libc_start_main     Unknown  Unknown
vasp_std           000000002001016A  Unknown               Unknown  Unknown
forrtl: error (78): process killed (SIGTERM)
Image              PC                Routine            Line        Source             
vasp_std           0000000021190B5B  for__signal_handl     Unknown  Unknown
libpthread-2.26.s  000014B718D10350  Unknown               Unknown  Unknown
vasp_std           0000000020387450  Unknown               Unknown  Unknown
vasp_std           0000000020393FFB  Unknown               Unknown  Unknown
vasp_std           000000002045D6A0  Unknown               Unknown  Unknown
vasp_std           00000000209C30FB  Unknown               Unknown  Unknown
vasp_std           0000000021113CF3  Unknown               Unknown  Unknown
vasp_std           0000000020010252  Unknown               Unknown  Unknown
libc-2.26.so       000014B7162E83EA  __libc_start_main     Unknown  Unknown
vasp_std           000000002001016A  Unknown               Unknown  Unknown
forrtl: error (78): process killed (SIGTERM)
Image              PC                Routine            Line        Source             
vasp_std           0000000021190B5B  for__signal_handl     Unknown  Unknown
libpthread-2.26.s  000014B718D10350  Unknown               Unknown  Unknown
vasp_std           000000002038742D  Unknown               Unknown  Unknown
vasp_std           0000000020393FFB  Unknown               Unknown  Unknown
vasp_std           000000002045D6A0  Unknown               Unknown  Unknown
vasp_std           00000000209C30FB  Unknown               Unknown  Unknown
vasp_std           0000000021113CF3  Unknown               Unknown  Unknown
vasp_std           0000000020010252  Unknown               Unknown  Unknown
libc-2.26.so       000014B7162E83EA  __libc_start_main     Unknown  Unknown
vasp_std           000000002001016A  Unknown               Unknown  Unknown
forrtl: error (78): process killed (SIGTERM)
Image              PC                Routine            Line        Source             
vasp_std           0000000021190B5B  for__signal_handl     Unknown  Unknown
libpthread-2.26.s  000014B718D10350  Unknown               Unknown  Unknown
vasp_std           0000000020387604  Unknown               Unknown  Unknown
vasp_std           0000000020393FFB  Unknown               Unknown  Unknown
vasp_std           000000002045D6A0  Unknown               Unknown  Unknown
vasp_std           00000000209C30FB  Unknown               Unknown  Unknown
vasp_std           0000000021113CF3  Unknown               Unknown  Unknown
vasp_std           0000000020010252  Unknown               Unknown  Unknown
libc-2.26.so       000014B7162E83EA  __libc_start_main     Unknown  Unknown
vasp_std           000000002001016A  Unknown               Unknown  Unknown
forrtl: error (78): process killed (SIGTERM)
Image              PC                Routine            Line        Source             
vasp_std           0000000021190B5B  for__signal_handl     Unknown  Unknown
libpthread-2.26.s  000014B718D10350  Unknown               Unknown  Unknown
vasp_std           0000000020387629  Unknown               Unknown  Unknown
vasp_std           0000000020393FFB  Unknown               Unknown  Unknown
vasp_std           000000002045D6A0  Unknown               Unknown  Unknown
vasp_std           00000000209C30FB  Unknown               Unknown  Unknown
vasp_std           0000000021113CF3  Unknown               Unknown  Unknown
vasp_std           0000000020010252  Unknown               Unknown  Unknown
libc-2.26.so       000014B7162E83EA  __libc_start_main     Unknown  Unknown
vasp_std           000000002001016A  Unknown               Unknown  Unknown
forrtl: error (78): process killed (SIGTERM)
Image              PC                Routine            Line        Source             
vasp_std           0000000021190B5B  for__signal_handl     Unknown  Unknown
libpthread-2.26.s  000014B718D10350  Unknown               Unknown  Unknown
vasp_std           00000000203875F0  Unknown               Unknown  Unknown
vasp_std           0000000020393FFB  Unknown               Unknown  Unknown
vasp_std           000000002045D6A0  Unknown               Unknown  Unknown
vasp_std           00000000209C30FB  Unknown               Unknown  Unknown
vasp_std           0000000021113CF3  Unknown               Unknown  Unknown
vasp_std           0000000020010252  Unknown               Unknown  Unknown
libc-2.26.so       000014B7162E83EA  __libc_start_main     Unknown  Unknown
vasp_std           000000002001016A  Unknown               Unknown  Unknown
forrtl: error (78): process killed (SIGTERM)
Image              PC                Routine            Line        Source             
vasp_std           0000000021190B5B  for__signal_handl     Unknown  Unknown
libpthread-2.26.s  000014B718D10350  Unknown               Unknown  Unknown
vasp_std           000000002037A88B  Unknown               Unknown  Unknown
vasp_std           00000000203871E4  Unknown               Unknown  Unknown
vasp_std           0000000020393FFB  Unknown               Unknown  Unknown
vasp_std           000000002045D6A0  Unknown               Unknown  Unknown
vasp_std           00000000209C30FB  Unknown               Unknown  Unknown
vasp_std           0000000021113CF3  Unknown               Unknown  Unknown
vasp_std           0000000020010252  Unknown               Unknown  Unknown
libc-2.26.so       000014B7162E83EA  __libc_start_main     Unknown  Unknown
vasp_std           000000002001016A  Unknown               Unknown  Unknown
forrtl: error (78): process killed (SIGTERM)
Image              PC                Routine            Line        Source             
vasp_std           0000000021190B5B  for__signal_handl     Unknown  Unknown
libpthread-2.26.s  000014B718D10350  Unknown               Unknown  Unknown
vasp_std           0000000020387B22  Unknown               Unknown  Unknown
vasp_std           0000000020393FFB  Unknown               Unknown  Unknown
vasp_std           000000002045D6A0  Unknown               Unknown  Unknown
vasp_std           00000000209C30FB  Unknown               Unknown  Unknown
vasp_std           0000000021113CF3  Unknown               Unknown  Unknown
vasp_std           0000000020010252  Unknown               Unknown  Unknown
libc-2.26.so       000014B7162E83EA  __libc_start_main     Unknown  Unknown
vasp_std           000000002001016A  Unknown               Unknown  Unknown
forrtl: error (78): process killed (SIGTERM)
Image              PC                Routine            Line        Source             
vasp_std           0000000021190B5B  for__signal_handl     Unknown  Unknown
libpthread-2.26.s  000014B718D10350  Unknown               Unknown  Unknown
vasp_std           0000000020387B10  Unknown               Unknown  Unknown
vasp_std           0000000020393FFB  Unknown               Unknown  Unknown
vasp_std           000000002045D6A0  Unknown               Unknown  Unknown
vasp_std           00000000209C30FB  Unknown               Unknown  Unknown
vasp_std           0000000021113CF3  Unknown               Unknown  Unknown
vasp_std           0000000020010252  Unknown               Unknown  Unknown
libc-2.26.so       000014B7162E83EA  __libc_start_main     Unknown  Unknown
vasp_std           000000002001016A  Unknown               Unknown  Unknown
forrtl: error (78): process killed (SIGTERM)
Image              PC                Routine            Line        Source             
vasp_std           0000000021190B5B  for__signal_handl     Unknown  Unknown
libpthread-2.26.s  000014B718D10350  Unknown               Unknown  Unknown
vasp_std           0000000020387B18  Unknown               Unknown  Unknown
vasp_std           0000000020393FFB  Unknown               Unknown  Unknown
vasp_std           000000002045D6A0  Unknown               Unknown  Unknown
vasp_std           00000000209C30FB  Unknown               Unknown  Unknown
vasp_std           0000000021113CF3  Unknown               Unknown  Unknown
vasp_std           0000000020010252  Unknown               Unknown  Unknown
libc-2.26.so       000014B7162E83EA  __libc_start_main     Unknown  Unknown
vasp_std           000000002001016A  Unknown               Unknown  Unknown
forrtl: error (78): process killed (SIGTERM)
Image              PC                Routine            Line        Source             
vasp_std           0000000021190B5B  for__signal_handl     Unknown  Unknown
libpthread-2.26.s  000014B718D10350  Unknown               Unknown  Unknown
vasp_std           000000002037A871  Unknown               Unknown  Unknown
vasp_std           00000000203871E4  Unknown               Unknown  Unknown
vasp_std           0000000020393FFB  Unknown               Unknown  Unknown
vasp_std           000000002045D6A0  Unknown               Unknown  Unknown
vasp_std           00000000209C30FB  Unknown               Unknown  Unknown
vasp_std           0000000021113CF3  Unknown               Unknown  Unknown
vasp_std           0000000020010252  Unknown               Unknown  Unknown
libc-2.26.so       000014B7162E83EA  __libc_start_main     Unknown  Unknown
vasp_std           000000002001016A  Unknown               Unknown  Unknown
forrtl: error (78): process killed (SIGTERM)
Image              PC                Routine            Line        Source             
vasp_std           0000000021190B5B  for__signal_handl     Unknown  Unknown
libpthread-2.26.s  000014B718D10350  Unknown               Unknown  Unknown
vasp_std           00000000203953FA  Unknown               Unknown  Unknown
vasp_std           000000002045D6A0  Unknown               Unknown  Unknown
vasp_std           00000000209C30FB  Unknown               Unknown  Unknown
vasp_std           0000000021113CF3  Unknown               Unknown  Unknown
vasp_std           0000000020010252  Unknown               Unknown  Unknown
libc-2.26.so       000014B7162E83EA  __libc_start_main     Unknown  Unknown
vasp_std           000000002001016A  Unknown               Unknown  Unknown
forrtl: error (78): process killed (SIGTERM)
Image              PC                Routine            Line        Source             
vasp_std           0000000021190B5B  for__signal_handl     Unknown  Unknown
libpthread-2.26.s  000014B718D10350  Unknown               Unknown  Unknown
vasp_std           00000000203875FE  Unknown               Unknown  Unknown
vasp_std           0000000020393FFB  Unknown               Unknown  Unknown
vasp_std           000000002045D6A0  Unknown               Unknown  Unknown
vasp_std           00000000209C30FB  Unknown               Unknown  Unknown
vasp_std           0000000021113CF3  Unknown               Unknown  Unknown
vasp_std           0000000020010252  Unknown               Unknown  Unknown
libc-2.26.so       000014B7162E83EA  __libc_start_main     Unknown  Unknown
vasp_std           000000002001016A  Unknown               Unknown  Unknown
forrtl: error (78): process killed (SIGTERM)
Image              PC                Routine            Line        Source             
vasp_std           0000000021190B5B  for__signal_handl     Unknown  Unknown
libpthread-2.26.s  000014B718D10350  Unknown               Unknown  Unknown
vasp_std           0000000020387497  Unknown               Unknown  Unknown
vasp_std           0000000020393FFB  Unknown               Unknown  Unknown
vasp_std           000000002045D6A0  Unknown               Unknown  Unknown
vasp_std           00000000209C30FB  Unknown               Unknown  Unknown
vasp_std           0000000021113CF3  Unknown               Unknown  Unknown
vasp_std           0000000020010252  Unknown               Unknown  Unknown
libc-2.26.so       000014B7162E83EA  __libc_start_main     Unknown  Unknown
vasp_std           000000002001016A  Unknown               Unknown  Unknown
forrtl: error (78): process killed (SIGTERM)
Image              PC                Routine            Line        Source             
vasp_std           0000000021190B5B  for__signal_handl     Unknown  Unknown
libpthread-2.26.s  000014B718D10350  Unknown               Unknown  Unknown
vasp_std           00000000203873EC  Unknown               Unknown  Unknown
vasp_std           0000000020393FFB  Unknown               Unknown  Unknown
vasp_std           000000002045D6A0  Unknown               Unknown  Unknown
vasp_std           00000000209C30FB  Unknown               Unknown  Unknown
vasp_std           0000000021113CF3  Unknown               Unknown  Unknown
vasp_std           0000000020010252  Unknown               Unknown  Unknown
libc-2.26.so       000014B7162E83EA  __libc_start_main     Unknown  Unknown
vasp_std           000000002001016A  Unknown               Unknown  Unknown
forrtl: error (78): process killed (SIGTERM)
Image              PC                Routine            Line        Source             
vasp_std           0000000021190B5B  for__signal_handl     Unknown  Unknown
libpthread-2.26.s  000014B718D10350  Unknown               Unknown  Unknown
vasp_std           000000002037A88B  Unknown               Unknown  Unknown
vasp_std           00000000203871E4  Unknown               Unknown  Unknown
vasp_std           0000000020393FFB  Unknown               Unknown  Unknown
vasp_std           000000002045D6A0  Unknown               Unknown  Unknown
vasp_std           00000000209C30FB  Unknown               Unknown  Unknown
vasp_std           0000000021113CF3  Unknown               Unknown  Unknown
vasp_std           0000000020010252  Unknown               Unknown  Unknown
libc-2.26.so       000014B7162E83EA  __libc_start_main     Unknown  Unknown
vasp_std           000000002001016A  Unknown               Unknown  Unknown
forrtl: error (78): process killed (SIGTERM)
Image              PC                Routine            Line        Source             
vasp_std           0000000021190B5B  for__signal_handl     Unknown  Unknown
libpthread-2.26.s  000014B718D10350  Unknown               Unknown  Unknown
vasp_std           00000000203875DD  Unknown               Unknown  Unknown
vasp_std           0000000020393FFB  Unknown               Unknown  Unknown
vasp_std           000000002045D6A0  Unknown               Unknown  Unknown
vasp_std           00000000209C30FB  Unknown               Unknown  Unknown
vasp_std           0000000021113CF3  Unknown               Unknown  Unknown
vasp_std           0000000020010252  Unknown               Unknown  Unknown
libc-2.26.so       000014B7162E83EA  __libc_start_main     Unknown  Unknown
vasp_std           000000002001016A  Unknown               Unknown  Unknown
forrtl: error (78): process killed (SIGTERM)
Image              PC                Routine            Line        Source             
vasp_std           0000000021190B5B  for__signal_handl     Unknown  Unknown
libpthread-2.26.s  000014B718D10350  Unknown               Unknown  Unknown
vasp_std           00000000203877CC  Unknown               Unknown  Unknown
vasp_std           0000000020393FFB  Unknown               Unknown  Unknown
vasp_std           000000002045D6A0  Unknown               Unknown  Unknown
vasp_std           00000000209C30FB  Unknown               Unknown  Unknown
vasp_std           0000000021113CF3  Unknown               Unknown  Unknown
vasp_std           0000000020010252  Unknown               Unknown  Unknown
libc-2.26.so       000014B7162E83EA  __libc_start_main     Unknown  Unknown
vasp_std           000000002001016A  Unknown               Unknown  Unknown
forrtl: error (78): process killed (SIGTERM)
Image              PC                Routine            Line        Source             
vasp_std           0000000021190B5B  for__signal_handl     Unknown  Unknown
libpthread-2.26.s  000014B718D10350  Unknown               Unknown  Unknown
vasp_std           00000000203875FE  Unknown               Unknown  Unknown
vasp_std           0000000020393FFB  Unknown               Unknown  Unknown
vasp_std           000000002045D6A0  Unknown               Unknown  Unknown
vasp_std           00000000209C30FB  Unknown               Unknown  Unknown
vasp_std           0000000021113CF3  Unknown               Unknown  Unknown
vasp_std           0000000020010252  Unknown               Unknown  Unknown
libc-2.26.so       000014B7162E83EA  __libc_start_main     Unknown  Unknown
vasp_std           000000002001016A  Unknown               Unknown  Unknown
forrtl: error (78): process killed (SIGTERM)
Image              PC                Routine            Line        Source             
vasp_std           0000000021190B5B  for__signal_handl     Unknown  Unknown
libpthread-2.26.s  000014B718D10350  Unknown               Unknown  Unknown
vasp_std           0000000020387450  Unknown               Unknown  Unknown
vasp_std           0000000020393FFB  Unknown               Unknown  Unknown
vasp_std           000000002045D6A0  Unknown               Unknown  Unknown
vasp_std           00000000209C30FB  Unknown               Unknown  Unknown
vasp_std           0000000021113CF3  Unknown               Unknown  Unknown
vasp_std           0000000020010252  Unknown               Unknown  Unknown
libc-2.26.so       000014B7162E83EA  __libc_start_main     Unknown  Unknown
vasp_std           000000002001016A  Unknown               Unknown  Unknown
forrtl: error (78): process killed (SIGTERM)
Image              PC                Routine            Line        Source             
vasp_std           0000000021190B5B  for__signal_handl     Unknown  Unknown
libpthread-2.26.s  000014B718D10350  Unknown               Unknown  Unknown
vasp_std           0000000020394BCB  Unknown               Unknown  Unknown
vasp_std           000000002045D6A0  Unknown               Unknown  Unknown
vasp_std           00000000209C30FB  Unknown               Unknown  Unknown
vasp_std           0000000021113CF3  Unknown               Unknown  Unknown
vasp_std           0000000020010252  Unknown               Unknown  Unknown
libc-2.26.so       000014B7162E83EA  __libc_start_main     Unknown  Unknown
vasp_std           000000002001016A  Unknown               Unknown  Unknown
forrtl: error (78): process killed (SIGTERM)
Image              PC                Routine            Line        Source             
vasp_std           0000000021190B5B  for__signal_handl     Unknown  Unknown
libpthread-2.26.s  000014B718D10350  Unknown               Unknown  Unknown
vasp_std           00000000203873E8  Unknown               Unknown  Unknown
vasp_std           0000000020393FFB  Unknown               Unknown  Unknown
vasp_std           000000002045D6A0  Unknown               Unknown  Unknown
vasp_std           00000000209C30FB  Unknown               Unknown  Unknown
vasp_std           0000000021113CF3  Unknown               Unknown  Unknown
vasp_std           0000000020010252  Unknown               Unknown  Unknown
libc-2.26.so       000014B7162E83EA  __libc_start_main     Unknown  Unknown
vasp_std           000000002001016A  Unknown               Unknown  Unknown
forrtl: error (78): process killed (SIGTERM)
Image              PC                Routine            Line        Source             
vasp_std           0000000021190B5B  for__signal_handl     Unknown  Unknown
libpthread-2.26.s  000014B718D10350  Unknown               Unknown  Unknown
vasp_std           0000000020387613  Unknown               Unknown  Unknown
vasp_std           0000000020393FFB  Unknown               Unknown  Unknown
vasp_std           000000002045D6A0  Unknown               Unknown  Unknown
vasp_std           00000000209C30FB  Unknown               Unknown  Unknown
vasp_std           0000000021113CF3  Unknown               Unknown  Unknown
vasp_std           0000000020010252  Unknown               Unknown  Unknown
libc-2.26.so       000014B7162E83EA  __libc_start_main     Unknown  Unknown
vasp_std           000000002001016A  Unknown               Unknown  Unknown
forrtl: error (78): process killed (SIGTERM)
Image              PC                Routine            Line        Source             
vasp_std           0000000021190B5B  for__signal_handl     Unknown  Unknown
libpthread-2.26.s  000014B718D10350  Unknown               Unknown  Unknown
vasp_std           000000002038783E  Unknown               Unknown  Unknown
vasp_std           0000000020393FFB  Unknown               Unknown  Unknown
vasp_std           000000002045D6A0  Unknown               Unknown  Unknown
vasp_std           00000000209C30FB  Unknown               Unknown  Unknown
vasp_std           0000000021113CF3  Unknown               Unknown  Unknown
vasp_std           0000000020010252  Unknown               Unknown  Unknown
libc-2.26.so       000014B7162E83EA  __libc_start_main     Unknown  Unknown
vasp_std           000000002001016A  Unknown               Unknown  Unknown
forrtl: error (78): process killed (SIGTERM)
Image              PC                Routine            Line        Source             
vasp_std           0000000021190B5B  for__signal_handl     Unknown  Unknown
libpthread-2.26.s  000014B718D10350  Unknown               Unknown  Unknown
vasp_std           0000000020387B22  Unknown               Unknown  Unknown
vasp_std           0000000020393FFB  Unknown               Unknown  Unknown
vasp_std           000000002045D6A0  Unknown               Unknown  Unknown
vasp_std           00000000209C30FB  Unknown               Unknown  Unknown
vasp_std           0000000021113CF3  Unknown               Unknown  Unknown
vasp_std           0000000020010252  Unknown               Unknown  Unknown
libc-2.26.so       000014B7162E83EA  __libc_start_main     Unknown  Unknown
vasp_std           000000002001016A  Unknown               Unknown  Unknown
forrtl: error (78): process killed (SIGTERM)
Image              PC                Routine            Line        Source             
vasp_std           0000000021190B5B  for__signal_handl     Unknown  Unknown
libpthread-2.26.s  000014B718D10350  Unknown               Unknown  Unknown
vasp_std           00000000203875D8  Unknown               Unknown  Unknown
vasp_std           0000000020393FFB  Unknown               Unknown  Unknown
vasp_std           000000002045D6A0  Unknown               Unknown  Unknown
vasp_std           00000000209C30FB  Unknown               Unknown  Unknown
vasp_std           0000000021113CF3  Unknown               Unknown  Unknown
vasp_std           0000000020010252  Unknown               Unknown  Unknown
libc-2.26.so       000014B7162E83EA  __libc_start_main     Unknown  Unknown
vasp_std           000000002001016A  Unknown               Unknown  Unknown
forrtl: error (78): process killed (SIGTERM)
Image              PC                Routine            Line        Source             
vasp_std           0000000021190B5B  for__signal_handl     Unknown  Unknown
libpthread-2.26.s  000014B718D10350  Unknown               Unknown  Unknown
vasp_std           0000000020387B2B  Unknown               Unknown  Unknown
vasp_std           0000000020393FFB  Unknown               Unknown  Unknown
vasp_std           000000002045D6A0  Unknown               Unknown  Unknown
vasp_std           00000000209C30FB  Unknown               Unknown  Unknown
vasp_std           0000000021113CF3  Unknown               Unknown  Unknown
vasp_std           0000000020010252  Unknown               Unknown  Unknown
libc-2.26.so       000014B7162E83EA  __libc_start_main     Unknown  Unknown
vasp_std           000000002001016A  Unknown               Unknown  Unknown
forrtl: error (78): process killed (SIGTERM)
Image              PC                Routine            Line        Source             
vasp_std           0000000021190B5B  for__signal_handl     Unknown  Unknown
libpthread-2.26.s  000014B718D10350  Unknown               Unknown  Unknown
vasp_std           00000000203878DB  Unknown               Unknown  Unknown
vasp_std           0000000020393FFB  Unknown               Unknown  Unknown
vasp_std           000000002045D6A0  Unknown               Unknown  Unknown
vasp_std           00000000209C30FB  Unknown               Unknown  Unknown
vasp_std           0000000021113CF3  Unknown               Unknown  Unknown
vasp_std           0000000020010252  Unknown               Unknown  Unknown
libc-2.26.so       000014B7162E83EA  __libc_start_main     Unknown  Unknown
vasp_std           000000002001016A  Unknown               Unknown  Unknown
forrtl: error (78): process killed (SIGTERM)
Image              PC                Routine            Line        Source             
vasp_std           0000000021190B5B  for__signal_handl     Unknown  Unknown
libpthread-2.26.s  000014B718D10350  Unknown               Unknown  Unknown
vasp_std           000000002038749B  Unknown               Unknown  Unknown
vasp_std           0000000020393FFB  Unknown               Unknown  Unknown
vasp_std           000000002045D6A0  Unknown               Unknown  Unknown
vasp_std           00000000209C30FB  Unknown               Unknown  Unknown
vasp_std           0000000021113CF3  Unknown               Unknown  Unknown
vasp_std           0000000020010252  Unknown               Unknown  Unknown
libc-2.26.so       000014B7162E83EA  __libc_start_main     Unknown  Unknown
vasp_std           000000002001016A  Unknown               Unknown  Unknown
forrtl: error (78): process killed (SIGTERM)
Image              PC                Routine            Line        Source             
vasp_std           0000000021190B5B  for__signal_handl     Unknown  Unknown
libpthread-2.26.s  000014B718D10350  Unknown               Unknown  Unknown
vasp_std           0000000020389467  Unknown               Unknown  Unknown
vasp_std           0000000020393FFB  Unknown               Unknown  Unknown
vasp_std           000000002045D6A0  Unknown               Unknown  Unknown
vasp_std           00000000209C30FB  Unknown               Unknown  Unknown
vasp_std           0000000021113CF3  Unknown               Unknown  Unknown
vasp_std           0000000020010252  Unknown               Unknown  Unknown
libc-2.26.so       000014B7162E83EA  __libc_start_main     Unknown  Unknown
vasp_std           000000002001016A  Unknown               Unknown  Unknown
forrtl: error (78): process killed (SIGTERM)
Image              PC                Routine            Line        Source             
vasp_std           0000000021190B5B  for__signal_handl     Unknown  Unknown
libpthread-2.26.s  000014B718D10350  Unknown               Unknown  Unknown
vasp_std           0000000020387B7C  Unknown               Unknown  Unknown
vasp_std           0000000020393FFB  Unknown               Unknown  Unknown
vasp_std           000000002045D6A0  Unknown               Unknown  Unknown
vasp_std           00000000209C30FB  Unknown               Unknown  Unknown
vasp_std           0000000021113CF3  Unknown               Unknown  Unknown
vasp_std           0000000020010252  Unknown               Unknown  Unknown
libc-2.26.so       000014B7162E83EA  __libc_start_main     Unknown  Unknown
vasp_std           000000002001016A  Unknown               Unknown  Unknown
forrtl: error (78): process killed (SIGTERM)
Image              PC                Routine            Line        Source             
vasp_std           0000000021190B5B  for__signal_handl     Unknown  Unknown
libpthread-2.26.s  000014B718D10350  Unknown               Unknown  Unknown
vasp_std           000000002037A88B  Unknown               Unknown  Unknown
vasp_std           00000000203871E4  Unknown               Unknown  Unknown
vasp_std           0000000020393FFB  Unknown               Unknown  Unknown
vasp_std           000000002045D6A0  Unknown               Unknown  Unknown
vasp_std           00000000209C30FB  Unknown               Unknown  Unknown
vasp_std           0000000021113CF3  Unknown               Unknown  Unknown
vasp_std           0000000020010252  Unknown               Unknown  Unknown
libc-2.26.so       000014B7162E83EA  __libc_start_main     Unknown  Unknown
vasp_std           000000002001016A  Unknown               Unknown  Unknown
forrtl: error (78): process killed (SIGTERM)
Image              PC                Routine            Line        Source             
vasp_std           0000000021190B5B  for__signal_handl     Unknown  Unknown
libpthread-2.26.s  000014B718D10350  Unknown               Unknown  Unknown
vasp_std           000000002037A88B  Unknown               Unknown  Unknown
vasp_std           00000000203871E4  Unknown               Unknown  Unknown
vasp_std           0000000020393FFB  Unknown               Unknown  Unknown
vasp_std           000000002045D6A0  Unknown               Unknown  Unknown
vasp_std           00000000209C30FB  Unknown               Unknown  Unknown
vasp_std           0000000021113CF3  Unknown               Unknown  Unknown
vasp_std           0000000020010252  Unknown               Unknown  Unknown
libc-2.26.so       000014B7162E83EA  __libc_start_main     Unknown  Unknown
vasp_std           000000002001016A  Unknown               Unknown  Unknown
forrtl: error (78): process killed (SIGTERM)
Image              PC                Routine            Line        Source             
vasp_std           0000000021190B5B  for__signal_handl     Unknown  Unknown
libpthread-2.26.s  000014B718D10350  Unknown               Unknown  Unknown
vasp_std           000000002038777A  Unknown               Unknown  Unknown
vasp_std           0000000020393FFB  Unknown               Unknown  Unknown
vasp_std           000000002045D6A0  Unknown               Unknown  Unknown
vasp_std           00000000209C30FB  Unknown               Unknown  Unknown
vasp_std           0000000021113CF3  Unknown               Unknown  Unknown
vasp_std           0000000020010252  Unknown               Unknown  Unknown
libc-2.26.so       000014B7162E83EA  __libc_start_main     Unknown  Unknown
vasp_std           000000002001016A  Unknown               Unknown  Unknown
forrtl: error (78): process killed (SIGTERM)
Image              PC                Routine            Line        Source             
vasp_std           0000000021190B5B  for__signal_handl     Unknown  Unknown
libpthread-2.26.s  000014B718D10350  Unknown               Unknown  Unknown
vasp_std           0000000020387B4A  Unknown               Unknown  Unknown
vasp_std           0000000020393FFB  Unknown               Unknown  Unknown
vasp_std           000000002045D6A0  Unknown               Unknown  Unknown
vasp_std           00000000209C30FB  Unknown               Unknown  Unknown
vasp_std           0000000021113CF3  Unknown               Unknown  Unknown
vasp_std           0000000020010252  Unknown               Unknown  Unknown
libc-2.26.so       000014B7162E83EA  __libc_start_main     Unknown  Unknown
vasp_std           000000002001016A  Unknown               Unknown  Unknown
forrtl: error (78): process killed (SIGTERM)
Image              PC                Routine            Line        Source             
vasp_std           0000000021190B5B  for__signal_handl     Unknown  Unknown
libpthread-2.26.s  000014B718D10350  Unknown               Unknown  Unknown
vasp_std           000000002037A890  Unknown               Unknown  Unknown
vasp_std           00000000203871E4  Unknown               Unknown  Unknown
vasp_std           0000000020393FFB  Unknown               Unknown  Unknown
vasp_std           000000002045D6A0  Unknown               Unknown  Unknown
vasp_std           00000000209C30FB  Unknown               Unknown  Unknown
vasp_std           0000000021113CF3  Unknown               Unknown  Unknown
vasp_std           0000000020010252  Unknown               Unknown  Unknown
libc-2.26.so       000014B7162E83EA  __libc_start_main     Unknown  Unknown
vasp_std           000000002001016A  Unknown               Unknown  Unknown
forrtl: error (78): process killed (SIGTERM)
Image              PC                Routine            Line        Source             
vasp_std           0000000021190B5B  for__signal_handl     Unknown  Unknown
libpthread-2.26.s  000014B718D10350  Unknown               Unknown  Unknown
libmpich_intel.so  000014B71689917A  MPIDI_CH3I_Progre     Unknown  Unknown
libmpich_intel.so  000014B7167DFD9D  MPIC_Wait             Unknown  Unknown
libmpich_intel.so  000014B7167E0037  MPIC_Recv             Unknown  Unknown
libmpich_intel.so  000014B71671F165  MPIR_Reduce_intra     Unknown  Unknown
libmpich_intel.so  000014B71671D589  MPIR_Reduce_impl      Unknown  Unknown
libmpich_intel.so  000014B716712396  MPIR_Allreduce_in     Unknown  Unknown
libmpich_intel.so  000014B71680323A  MPIR_CRAY_Allredu     Unknown  Unknown
libmpich_intel.so  000014B7167131E4  MPIR_Allreduce_im     Unknown  Unknown
libmpich_intel.so  000014B716713B85  MPI_Allreduce         Unknown  Unknown
libmpich_intel.so  000014B7167D59F2  mpi_allreduce_        Unknown  Unknown
vasp_std           000000002001D1FF  Unknown               Unknown  Unknown
vasp_std           000000002045E803  Unknown               Unknown  Unknown
vasp_std           00000000209C30FB  Unknown               Unknown  Unknown
vasp_std           0000000021113CF3  Unknown               Unknown  Unknown
vasp_std           0000000020010252  Unknown               Unknown  Unknown
libc-2.26.so       000014B7162E83EA  __libc_start_main     Unknown  Unknown
vasp_std           000000002001016A  Unknown               Unknown  Unknown
forrtl: error (78): process killed (SIGTERM)
Image              PC                Routine            Line        Source             
vasp_std           0000000021190B5B  for__signal_handl     Unknown  Unknown
libpthread-2.26.s  000014CCFA1B8350  Unknown               Unknown  Unknown
libmpich_intel.so  000014CCF7D41125  MPIDI_CH3I_Progre     Unknown  Unknown
libmpich_intel.so  000014CCF7C87D9D  MPIC_Wait             Unknown  Unknown
libmpich_intel.so  000014CCF7C88037  MPIC_Recv             Unknown  Unknown
libmpich_intel.so  000014CCF7CAE1EC  MPIR_CRAY_Bcast_T     Unknown  Unknown
libmpich_intel.so  000014CCF7CB04DC  MPIR_CRAY_Bcast       Unknown  Unknown
libmpich_intel.so  000014CCF7BBFCCB  MPIR_Bcast_impl       Unknown  Unknown
libmpich_intel.so  000014CCF7BBA43E  MPIR_Allreduce_in     Unknown  Unknown
libmpich_intel.so  000014CCF7CAB23A  MPIR_CRAY_Allredu     Unknown  Unknown
libmpich_intel.so  000014CCF7BBB1E4  MPIR_Allreduce_im     Unknown  Unknown
libmpich_intel.so  000014CCF7BBBB85  MPI_Allreduce         Unknown  Unknown
libmpich_intel.so  000014CCF7C7D9F2  mpi_allreduce_        Unknown  Unknown
vasp_std           000000002001D1FF  Unknown               Unknown  Unknown
vasp_std           000000002045E803  Unknown               Unknown  Unknown
vasp_std           00000000209C30FB  Unknown               Unknown  Unknown
vasp_std           0000000021113CF3  Unknown               Unknown  Unknown
vasp_std           0000000020010252  Unknown               Unknown  Unknown
libc-2.26.so       000014CCF77903EA  __libc_start_main     Unknown  Unknown
vasp_std           000000002001016A  Unknown               Unknown  Unknown
forrtl: error (78): process killed (SIGTERM)
Image              PC                Routine            Line        Source             
vasp_std           0000000021190B5B  for__signal_handl     Unknown  Unknown
libpthread-2.26.s  00001542C0625350  Unknown               Unknown  Unknown
libmpich_intel.so  00001542BE1AE7B7  MPIDI_CH3I_Progre     Unknown  Unknown
libmpich_intel.so  00001542BE0F4D9D  MPIC_Wait             Unknown  Unknown
libmpich_intel.so  00001542BE0F5037  MPIC_Recv             Unknown  Unknown
libmpich_intel.so  00001542BE11B1EC  MPIR_CRAY_Bcast_T     Unknown  Unknown
libmpich_intel.so  00001542BE11D4DC  MPIR_CRAY_Bcast       Unknown  Unknown
libmpich_intel.so  00001542BE02CCCB  MPIR_Bcast_impl       Unknown  Unknown
libmpich_intel.so  00001542BE02743E  MPIR_Allreduce_in     Unknown  Unknown
libmpich_intel.so  00001542BE11823A  MPIR_CRAY_Allredu     Unknown  Unknown
libmpich_intel.so  00001542BE0281E4  MPIR_Allreduce_im     Unknown  Unknown
libmpich_intel.so  00001542BE028B85  MPI_Allreduce         Unknown  Unknown
libmpich_intel.so  00001542BE0EA9F2  mpi_allreduce_        Unknown  Unknown
vasp_std           000000002001D1FF  Unknown               Unknown  Unknown
vasp_std           000000002045E803  Unknown               Unknown  Unknown
vasp_std           00000000209C30FB  Unknown               Unknown  Unknown
vasp_std           0000000021113CF3  Unknown               Unknown  Unknown
vasp_std           0000000020010252  Unknown               Unknown  Unknown
libc-2.26.so       00001542BDBFD3EA  __libc_start_main     Unknown  Unknown
vasp_std           000000002001016A  Unknown               Unknown  Unknown
forrtl: error (78): process killed (SIGTERM)
Image              PC                Routine            Line        Source             
vasp_std           0000000021190B5B  for__signal_handl     Unknown  Unknown
libpthread-2.26.s  00001542C0625350  Unknown               Unknown  Unknown
libmpich_intel.so  00001542BE1AE7B7  MPIDI_CH3I_Progre     Unknown  Unknown
libmpich_intel.so  00001542BE0F4D9D  MPIC_Wait             Unknown  Unknown
libmpich_intel.so  00001542BE0F5037  MPIC_Recv             Unknown  Unknown
libmpich_intel.so  00001542BE11B1EC  MPIR_CRAY_Bcast_T     Unknown  Unknown
libmpich_intel.so  00001542BE11D4DC  MPIR_CRAY_Bcast       Unknown  Unknown
libmpich_intel.so  00001542BE02CCCB  MPIR_Bcast_impl       Unknown  Unknown
libmpich_intel.so  00001542BE02743E  MPIR_Allreduce_in     Unknown  Unknown
libmpich_intel.so  00001542BE11823A  MPIR_CRAY_Allredu     Unknown  Unknown
libmpich_intel.so  00001542BE0281E4  MPIR_Allreduce_im     Unknown  Unknown
libmpich_intel.so  00001542BE028B85  MPI_Allreduce         Unknown  Unknown
libmpich_intel.so  00001542BE0EA9F2  mpi_allreduce_        Unknown  Unknown
vasp_std           000000002001D1FF  Unknown               Unknown  Unknown
vasp_std           000000002045E803  Unknown               Unknown  Unknown
vasp_std           00000000209C30FB  Unknown               Unknown  Unknown
vasp_std           0000000021113CF3  Unknown               Unknown  Unknown
vasp_std           0000000020010252  Unknown               Unknown  Unknown
libc-2.26.so       00001542BDBFD3EA  __libc_start_main     Unknown  Unknown
vasp_std           000000002001016A  Unknown               Unknown  Unknown
forrtl: error (78): process killed (SIGTERM)
Image              PC                Routine            Line        Source             
vasp_std           0000000021190B5B  for__signal_handl     Unknown  Unknown
libpthread-2.26.s  000014CCFA1B8350  Unknown               Unknown  Unknown
libc-2.26.so       000014CCF784F387  __sched_yield         Unknown  Unknown
libmpich_intel.so  000014CCF7D41221  MPIDI_CH3I_Progre     Unknown  Unknown
libmpich_intel.so  000014CCF7C87D9D  MPIC_Wait             Unknown  Unknown
libmpich_intel.so  000014CCF7C88037  MPIC_Recv             Unknown  Unknown
libmpich_intel.so  000014CCF7CAE1EC  MPIR_CRAY_Bcast_T     Unknown  Unknown
libmpich_intel.so  000014CCF7CB04DC  MPIR_CRAY_Bcast       Unknown  Unknown
libmpich_intel.so  000014CCF7BBFCCB  MPIR_Bcast_impl       Unknown  Unknown
libmpich_intel.so  000014CCF7BBA43E  MPIR_Allreduce_in     Unknown  Unknown
libmpich_intel.so  000014CCF7CAB23A  MPIR_CRAY_Allredu     Unknown  Unknown
libmpich_intel.so  000014CCF7BBB1E4  MPIR_Allreduce_im     Unknown  Unknown
libmpich_intel.so  000014CCF7BBBB85  MPI_Allreduce         Unknown  Unknown
libmpich_intel.so  000014CCF7C7D9F2  mpi_allreduce_        Unknown  Unknown
vasp_std           000000002001D1FF  Unknown               Unknown  Unknown
vasp_std           000000002045E803  Unknown               Unknown  Unknown
vasp_std           00000000209C30FB  Unknown               Unknown  Unknown
vasp_std           0000000021113CF3  Unknown               Unknown  Unknown
vasp_std           0000000020010252  Unknown               Unknown  Unknown
libc-2.26.so       000014CCF77903EA  __libc_start_main     Unknown  Unknown
vasp_std           000000002001016A  Unknown               Unknown  Unknown
forrtl: error (78): process killed (SIGTERM)
Image              PC                Routine            Line        Source             
vasp_std           0000000021190B5B  for__signal_handl     Unknown  Unknown
libpthread-2.26.s  0000146CDE697350  Unknown               Unknown  Unknown
libmpich_intel.so  0000146CDC2201E3  MPIDI_CH3I_Progre     Unknown  Unknown
libmpich_intel.so  0000146CDC166D9D  MPIC_Wait             Unknown  Unknown
libmpich_intel.so  0000146CDC167037  MPIC_Recv             Unknown  Unknown
libmpich_intel.so  0000146CDC18D1EC  MPIR_CRAY_Bcast_T     Unknown  Unknown
libmpich_intel.so  0000146CDC18F4DC  MPIR_CRAY_Bcast       Unknown  Unknown
libmpich_intel.so  0000146CDC09ECCB  MPIR_Bcast_impl       Unknown  Unknown
libmpich_intel.so  0000146CDC09943E  MPIR_Allreduce_in     Unknown  Unknown
libmpich_intel.so  0000146CDC18A23A  MPIR_CRAY_Allredu     Unknown  Unknown
libmpich_intel.so  0000146CDC09A1E4  MPIR_Allreduce_im     Unknown  Unknown
libmpich_intel.so  0000146CDC09AB85  MPI_Allreduce         Unknown  Unknown
libmpich_intel.so  0000146CDC15C9F2  mpi_allreduce_        Unknown  Unknown
vasp_std           000000002001D1FF  Unknown               Unknown  Unknown
vasp_std           000000002045E803  Unknown               Unknown  Unknown
vasp_std           00000000209C30FB  Unknown               Unknown  Unknown
vasp_std           0000000021113CF3  Unknown               Unknown  Unknown
vasp_std           0000000020010252  Unknown               Unknown  Unknown
libc-2.26.so       0000146CDBC6F3EA  __libc_start_main     Unknown  Unknown
vasp_std           000000002001016A  Unknown               Unknown  Unknown
forrtl: error (78): process killed (SIGTERM)
Image              PC                Routine            Line        Source             
vasp_std           0000000021190B5B  for__signal_handl     Unknown  Unknown
libpthread-2.26.s  000015016E006350  Unknown               Unknown  Unknown
libmpich_intel.so  000015016BBB1BF0  MPID_nem_gni_poll     Unknown  Unknown
libmpich_intel.so  000015016BB8F766  MPIDI_CH3I_Progre     Unknown  Unknown
libmpich_intel.so  000015016BAD5D9D  MPIC_Wait             Unknown  Unknown
libmpich_intel.so  000015016BAD6037  MPIC_Recv             Unknown  Unknown
libmpich_intel.so  000015016BAFC1EC  MPIR_CRAY_Bcast_T     Unknown  Unknown
libmpich_intel.so  000015016BAFE4DC  MPIR_CRAY_Bcast       Unknown  Unknown
libmpich_intel.so  000015016BA0DCCB  MPIR_Bcast_impl       Unknown  Unknown
libmpich_intel.so  000015016BA0843E  MPIR_Allreduce_in     Unknown  Unknown
libmpich_intel.so  000015016BAF923A  MPIR_CRAY_Allredu     Unknown  Unknown
libmpich_intel.so  000015016BA091E4  MPIR_Allreduce_im     Unknown  Unknown
libmpich_intel.so  000015016BA09B85  MPI_Allreduce         Unknown  Unknown
libmpich_intel.so  000015016BACB9F2  mpi_allreduce_        Unknown  Unknown
vasp_std           000000002001D1FF  Unknown               Unknown  Unknown
vasp_std           000000002045E803  Unknown               Unknown  Unknown
vasp_std           00000000209C30FB  Unknown               Unknown  Unknown
vasp_std           0000000021113CF3  Unknown               Unknown  Unknown
vasp_std           0000000020010252  Unknown               Unknown  Unknown
libc-2.26.so       000015016B5DE3EA  __libc_start_main     Unknown  Unknown
vasp_std           000000002001016A  Unknown               Unknown  Unknown
forrtl: error (78): process killed (SIGTERM)
Image              PC                Routine            Line        Source             
vasp_std           0000000021190B5B  for__signal_handl     Unknown  Unknown
libpthread-2.26.s  0000146CDE697350  Unknown               Unknown  Unknown
libmpich_intel.so  0000146CDC21B8D6  Unknown               Unknown  Unknown
libmpich_intel.so  0000146CDC2201B8  MPIDI_CH3I_Progre     Unknown  Unknown
libmpich_intel.so  0000146CDC166D9D  MPIC_Wait             Unknown  Unknown
libmpich_intel.so  0000146CDC167037  MPIC_Recv             Unknown  Unknown
libmpich_intel.so  0000146CDC18D1EC  MPIR_CRAY_Bcast_T     Unknown  Unknown
libmpich_intel.so  0000146CDC18F4DC  MPIR_CRAY_Bcast       Unknown  Unknown
libmpich_intel.so  0000146CDC09ECCB  MPIR_Bcast_impl       Unknown  Unknown
libmpich_intel.so  0000146CDC09943E  MPIR_Allreduce_in     Unknown  Unknown
libmpich_intel.so  0000146CDC18A23A  MPIR_CRAY_Allredu     Unknown  Unknown
libmpich_intel.so  0000146CDC09A1E4  MPIR_Allreduce_im     Unknown  Unknown
libmpich_intel.so  0000146CDC09AB85  MPI_Allreduce         Unknown  Unknown
libmpich_intel.so  0000146CDC15C9F2  mpi_allreduce_        Unknown  Unknown
vasp_std           000000002001D1FF  Unknown               Unknown  Unknown
vasp_std           000000002045E803  Unknown               Unknown  Unknown
vasp_std           00000000209C30FB  Unknown               Unknown  Unknown
vasp_std           0000000021113CF3  Unknown               Unknown  Unknown
vasp_std           0000000020010252  Unknown               Unknown  Unknown
libc-2.26.so       0000146CDBC6F3EA  __libc_start_main     Unknown  Unknown
vasp_std           000000002001016A  Unknown               Unknown  Unknown
forrtl: error (78): process killed (SIGTERM)
Image              PC                Routine            Line        Source             
vasp_std           0000000021190B5B  for__signal_handl     Unknown  Unknown
libpthread-2.26.s  0000146CDE697350  Unknown               Unknown  Unknown
libugni.so.0.6.0   0000146CDB3EB6Eforrtl: error (78): process killed (SIGTERM)
Image              PC                Routine            Line        Source             
vasp_std           0000000021190B5B  for__signal_handl     Unknown  Unknown
libpthread-2.26.s  000015016E006350  Unknown               Unknown  Unknown
libmpich_intel.so  000015016BB9B30B  MPID_nem_network_     Unknown  Unknown
libmpich_intel.so  000015016BB8F766  MPIDI_CH3I_Progre     Unknown  Unknown
libmpich_intel.so  000015016BAD5D9D  MPIC_Wait             Unknown  Unknown
libmpich_intel.so  000015016BAD6037  MPIC_Recv             Unknown  Unknown
libmpich_intel.so  000015016BAFC1EC  MPIR_CRAY_Bcast_T     Unknown  Unknown
libmpich_intel.so  000015016BAFE4DC  MPIR_CRAY_Bcast       Unknown  Unknown
libmpich_intel.so  000015016BA0DCCB  MPIR_Bcast_impl       Unknown  Unknown
libmpich_intel.so  000015016BA0843E  MPIR_Allreduce_in     Unknown  Unknown
libmpich_intel.so  000015016BAF923A  MPIR_CRAY_Allredu     Unknown  Unknown
libmpich_intel.so  000015016BA091E4  MPIR_Allreduce_im     Unknown  Unknown
libmpich_intel.so  000015016BA09B85  MPI_Allreduce         Unknown  Unknown
libmpich_intel.so  000015016BACB9F2  mpi_allreduce_        Unknown  Unknown
vasp_std           000000002001D1FF  Unknown               Unknown  Unknown
vasp_std           000000002045E803  Unknown               Unknown  Unknown
vasp_std           00000000209C30FB  Unknown               Unknown  Unknown
vasp_std           0000000021113CF3  Unknown               Unknown  Unknown
vasp_std           0000000020010252  Unknown               Unknown  Unknown
libc-2.26.so       000015016B5DE3EA  __libc_start_main     Unknown  Unknown
vasp_std           000000002001016A  Unknown               Unknown  Unknown
forrtl: error (78): process killed (SIGTERM)
Image              PC                Routine            Line        Source             
vasp_std           0000000021190B5B  for__signal_handl     Unknown  Unknown
libpthread-2.26.s  000014F587473350  Unknown               Unknown  Unknown
libmpich_intel.so  000014F58501EB90  MPID_nem_gni_poll     Unknown  Unknown
libmpich_intel.so  000014F584FFC766  MPIDI_CH3I_Progre     Unknown  Unknown
libmpich_intel.so  000014F584F42D9D  MPIC_Wait             Unknown  Unknown
libmpich_intel.so  000014F584F43037  MPIC_Recv             Unknown  Unknown
libmpich_intel.so  000014F584F691EC  MPIR_CRAY_Bcast_T     Unknown  Unknown
libmpich_intel.so  000014F584F6B4DC  MPIR_CRAY_Bcast       Unknown  Unknown
libmpich_intel.so  000014F584E7ACCB  MPIR_Bcast_impl       Unknown  Unknown
libmpich_intel.so  000014F584E7543E  MPIR_Allreduce_in     Unknown  Unknown
libmpich_intel.so  000014F584F6623A  MPIR_CRAY_Allredu     Unknown  Unknown
libmpich_intel.so  000014F584E761E4  MPIR_Allreduce_im     Unknown  Unknown
libmpich_intel.so  000014F584E76B85  MPI_Allreduce         Unknown  Unknown
libmpich_intel.so  000014F584F389F2  mpi_allreduce_        Unknown  Unknown
vasp_std           000000002001D1FF  Unknown               Unknown  Unknown
vasp_std           000000002045E803  Unknown               Unknown  Unknown
vasp_std           00000000209C30FB  Unknown               Unknown  Unknown
vasp_std           0000000021113CF3  Unknown               Unknown  Unknown
vasp_std           0000000020010252  Unknown               Unknown  Unknown
libc-2.26.so       000014F584A4B3EA  __libc_start_main     Unknown  Unknown
vasp_std           000000002001016A  Unknown               Unknown  Unknown
forrtl: error (78): process killed (SIGTERM)
Image              PC                Routine            Line        Source             
vasp_std           0000000021190B5B  for__signal_handl     Unknown  Unknown
libpthread-2.26.s  0000145615C98350  Unknown               Unknown  Unknown
libmpich_intel.so  0000145613843BF0  MPID_nem_gni_poll     Unknown  Unknown
libmpich_intel.so  0000145613821766  MPIDI_CH3I_Progre     Unknown  Unknown
libmpich_intel.so  0000145613767D9D  MPIC_Wait             Unknown  Unknown
libmpich_intel.so  0000145613768037  MPIC_Recv             Unknown  Unknown
libmpich_intel.so  000014561378E1EC  MPIR_CRAY_Bcast_T     Unknown  Unknown
libmpich_intel.so  00001456137904DC  MPIR_CRAY_Bcast       Unknown  Unknown
libmpich_intel.so  000014561369FCCB  MPIR_Bcast_impl       Unknown  Unknown
libmpich_intel.so  000014561369A43E  MPIR_Allreduce_in     Unknown  Unknown
libmpich_intel.so  000014561378B23A  MPIR_CRAY_Allredu     Unknown  Unknown
libmpich_intel.so  000014561369B1E4  MPIR_Allreduce_im     Unknown  Unknown
libmpich_intel.so  000014561369BB85  MPI_Allreduce         Unknown  Unknown
libmpich_intel.so  000014561375D9F2  mpi_allreduce_        Unknown  Unknown
vasp_std           000000002001D1FF  Unknown               Unknown  Unknown
vasp_std           000000002045E803  Unknown               Unknown  Unknown
vasp_std           00000000209C30FB  Unknown               Unknown  Unknown
vasp_std           0000000021113CF3  Unknown               Unknown  Unknown
vasp_std           0000000020010252  Unknown               Unknown  Unknown
libc-2.26.so       00001456132703EA  __libc_start_main     Unknown  Unknown
vasp_std           000000002001016A  Unknown               Unknown  Unknown
forrtl: error (78): process killed (SIGTERM)
Image              PC                Routine            Line        Source             
vasp_std           0000000021190B5B  for__signal_handl     Unknown  Unknown
libpthread-2.26.s  0000145615C98350  Unknown               Unknown  Unknown
libmpich_intel.so  00001456138438CD  MPID_nem_gni_poll     Unknown  Unknown
libmpich_intel.so  0000145613821766  MPIDI_CH3I_Progre     Unknown  Unknown
libmpich_intel.so  0000145613767D9D  MPIC_Wait             Unknown  Unknown
libmpich_intel.so  0000145613768037  MPIC_Recv             Unknown  Unknown
libmpich_intel.so  000014561378E1EC  MPIR_CRAY_Bcast_T     Unknown  Unknown
libmpich_intel.so  00001456137904DC  MPIR_CRAY_Bcast       Unknown  Unknown
libmpich_intel.so  000014561369FCCB  MPIR_Bcast_impl       Unknown  Unknown
libmpich_intel.so  000014561369A43E  MPIR_Allreduce_in     Unknown  Unknown
libmpich_intel.so  000014561378B23A  MPIR_CRAY_Allredu     Unknown  Unknown
libmpich_intel.so  000014561369B1E4  MPIR_Allreduce_im     Unknown  Unknown
libmpich_intel.so  000014561369BB85  MPI_Allreduce         Unknown  Unknown
libmpich_intel.so  000014561375D9F2  mpi_allreduce_        Unknown  Unknown
vasp_std           000000002001D1FF  Unknown               Unknown  Unknown
vasp_std           000000002045E803  Unknown               Unknown  Unknown
vasp_std           00000000209C30FB  Unknown               Unknown  Unknown
vasp_std           0000000021113CF3  Unknown               Unknown  Unknown
vasp_std           0000000020010252  Unknown               Unknown  Unknown
libc-2.26.so       00001456132703EA  __libc_start_main     Unknown  Unknown
vasp_std           000000002001016A  Unknown               Unknown  Unknown
forrtl: error (78): process killed (SIGTERM)
Image              PC                Routine            Line        Source             
vasp_std           0000000021190B5B  for__signal_handl     Unknown  Unknown
libpthread-2.26.s  0000145615C98350  Unknown               Unknown  Unknown
libmpich_intel.so  0000145613843BC5  MPID_nem_gni_poll     Unknown  Unknown
libmpich_intel.so  0000145613821766  MPIDI_CH3I_Progre     Unknown  Unknown
libmpich_intel.so  0000145613767D9D  MPIC_Wait             Unknown  Unknown
libmpich_intel.so  0000145613768037  MPIC_Recv             Unknown  Unknown
libmpich_intel.so  000014561378E1EC  MPIR_CRAY_Bcforrtl: error (78): process killed (SIGTERM)
Image              PC                Routine            Line        Source             
vasp_std           0000000021190B5B  for__signal_handl     Unknown  Unknown
libpthread-2.26.s  000014F587473350  Unknown               Unknown  Unknown
libugni.so.0.6.0   000014F5841C76E2  GNI_SmsgGetNextWT     Unknown  Unknown
libmpich_intel.so  000014F58501F5E0  MPID_nem_gni_poll     Unknown  Unknown
libmpich_intel.so  000014F584FFC766  MPIDI_CH3I_Progre     Unknown  Unknown
libmpich_intel.so  000014F584F42D9D  MPIC_Wait             Unknown  Unknown
libmpich_intel.so  000014F584F43037  MPIC_Recv             Unknown  Unknown
libmpich_intel.so  000014F584F691EC  MPIR_CRAY_Bcast_T     Unknown  Unknown
libmpich_intel.so  000014F584F6B4DC  MPIR_CRAY_Bcast       Unknown  Unknown
libmpich_intel.so  000014F584E7ACCB  MPIR_Bcast_impl       Unknown  Unknown
libmpich_intel.so  000014F584E7543E  MPIR_Allreduce_in     Unknown  Unknown
libmpich_intel.so  000014F584F6623A  MPIR_CRAY_Allredu     Unknown  Unknown
libmpich_intel.so  000014F584E761E4  MPIR_Allreduce_im     Unknown  Unknown
libmpich_intel.so  000014F584E76B85  MPI_Allreduce         Unknown  Unknown
libmpich_intel.so  000014F584F389F2  mpi_allreduce_        Unknown  Unknown
vasp_std           000000002001D1FF  Unknown               Unknown  Unknown
vasp_std           000000002045E803  Unknown               Unknown  Unknown
vasp_std           00000000209C30FB  Unknown               Unknown  Unknown
vasp_std           0000000021113CF3  Unknown               Unknown  Unknown
vasp_std           0000000020010252  Unknown               Unknown  Unknown
libc-2.26.so       000014F584A4B3EA  __libc_start_main     Unknown  Unknown
vasp_std           000000002001016A  Unknown               Unknown  Unknown
forrtl: error (78): process killed (SIGTERM)
Image              PC                Routine            Line        Source             
vasp_std           0000000021190B5B  for__signal_handl     Unknown  Unknown
libpthread-2.26.s  000014B718D10350  Unknown               Unknown  Unknown
libugni.so.0.6.0   000014B715A35F7C  GNII_DlaProgress      Unknown  Unknown
libugni.so.0.6.0   000014B715A30192  GNI_CqGetEvent        Unknown  Unknown
libmpich_intel.so  000014B7168BB92B  MPID_nem_gni_poll     Unknown  Unknown
libmpich_intel.so  000014B716899766  MPIDI_CH3I_Progre     Unknown  Unknown
libmpich_intel.so  000014B7167DFD9D  MPIC_Wait             Unknown  Unknown
libmpich_intel.so  000014B7167E0037  MPIC_Recv             Unknown  Unknown
libmpich_intel.so  000014B71671F165  MPIR_Reduce_intra     Unknown  Unknown
libmpich_intel.so  000014B71671D589  MPIR_Reduce_impl      Unknown  Unknown
libmpich_intel.so  000014B716712396  MPIR_Allreduce_in     Unknown  Unknown
libmpich_intel.so  000014B71680323A  MPIR_CRAY_Allredu     Unknown  Unknown
libmpich_intel.so  000014B7167131E4  MPIR_Allreduce_im     Unknown  Unknown
libmpich_intel.so  000014B716713B85  MPI_Allreduce         Unknown  Unknown
libmpich_intel.so  000014B7167D59F2  mpi_allreduce_        Unknown  Unknown
vasp_std           000000002001D1FF  Unknown               Unknown  Unknown
vasp_std           000000002045E803  Unknown               Unknown  Unknown
vasp_std           00000000209C30FB  Unknown               Unknown  Unknown
vasp_std           0000000021113CF3  Unknown               Unknown  Unknown
vasp_std           0000000020010252  Unknown               Unknown  Unknown
libc-2.26.so       000014B7162E83EA  __libc_start_main     Unknown  Unknown
vasp_std           000000002001016A  Unknown               Unknown  Unknown
forrtl: error (78): process killed (SIGTERM)
Image              PC                Routine            Line        Source             
vasp_std           0000000021190B5B  for__signal_handl     Unknown  Unknown
libpthread-2.26.s  000015212E435350  Unknown               Unknown  Unknown
libmpich_intel.so  000015212BFBE78E  MPIDI_CH3I_Progre     Unknown  Unknown
libmpich_intel.so  000015212BF04D9D  MPIC_Wait             Unknown  Unknown
libmpich_intel.so  000015212BF05037  MPIC_Recv             Unknown  Unknown
libmpich_intel.so  000015212BF2B1EC  MPIR_CRAY_Bcast_T     Unknown  Unknown
libmpich_intel.so  000015212BF2D4DC  MPIR_CRAY_Bcast       Unknown  Unknown
libmpich_intel.so  000015212BE3CCCB  MPIR_Bcast_impl       Unknown  Unknown
libmpich_intel.so  000015212BE3743E  MPIR_Allreduce_in     Unknown  Unknown
libmpich_intel.so  000015212BF2823A  MPIR_CRAY_Allredu     Unknown  Unknown
libmpich_intel.so  000015212BE381E4  MPIR_Allreduce_im     Unknown  Unknown
[...]
vasp_std           000000002045E803  Unknown               Unknown  Unknown
vasp_std           00000000209C30FB  Unknown               Unknown  Unknown
vasp_std           0000000021113CF3  Unknown               Unknown  Unknown
vasp_std           0000000020010252  Unknown               Unknown  Unknown
libc-2.26.so       000015016B5DE3EA  __libc_start_main     Unknown  Unknown
vasp_std           000000002001016A  Unknown               Unknown  Unknown
forrtl: error (78): process killed (SIGTERM)
Image              PC                Routine            Line        Source             
vasp_std           0000000021190B5B  for__signal_handl     Unknown  Unknown
libpthread-2.26.s  000015016E006350  Unknown               Unknown  Unknown
libugni.so.0.6.0   000015016AD2BF6C  GNII_DlaProgress      Unknown  Unknown
libugni.so.0.6.0   000015016AD26192  GNI_CqGetEvent        Unknown  Unknown
libmpich_intel.so  000015016BBB192B  MPID_nem_gni_poll     Unknown  Unknown
libmpich_intel.so  000015016BB8F766  MPIDI_CH3I_Progre     Unknown  Unknown
libmpich_intel.so  000015016BAD5D9D  MPIC_Wait             Unknown  Unknown
libmpich_intel.so  000015016BAD6452  MPIC_Sendrecv         Unknown  Unknown
libmpich_intel.so  000015016BA07FE4  MPIR_Allreduce_in     Unknown  Unknown
libmpich_intel.so  000015016BAF923A  MPIR_CRAY_Allredu     Unknown  Unknown
libmpich_intel.so  000015016BA08401  MPIR_Allreduce_in     Unknown  Unknown
libmpich_intel.so  000015016BAF923A  MPIR_CRAY_Allredu     Unknown  Unknown
libmpich_intel.so  000015016BA091E4  MPIR_Allreduce_im     Unknown  Unknown
libmpich_intel.so  000015016BA09B85  MPI_Allreduce         Unknown  Unknown
libmpich_intel.so  000015016BACB9F2  mpi_allreduce_        Unknown  Unknown
vasp_std           000000002001D1FF  Unknown               Unknown  Unknown
vasp_std           000000002045E803  Unknown               Unknown  Unknown
vasp_std           00000000209C30FB  Unknown               Unknown  Unknown
vasp_std         own  Unknown
vasp_std           0000000020010252  Unknown               Unknown  Unknown
libc-2.26.so       000014F584A4B3EA  __libc_start_main     Unknown  Unknown
vasp_std           000000002001016A  Unknown               Unknown  Unknown
forrtl: error (78): process killed (SIGTERM)
Image              PC                Routine            Line        Source             
vasp_std           0000000021190B5B  for__signal_handl     Unknown  Unknown
libpthread-2.26.s  000014F587473350  Unknown               Unknown  Unknown
libugni.so.0.6.0   000014F58419319D  GNI_CqGetEvent        Unknown  Unknown
libmpich_intel.so  000014F58501DE89  Unknown               Unknown  Unknown
libmpich_intel.so  000014F58501E99A  MPID_nem_gni_poll     Unknown  Unknown
libmpich_intel.so  000014F584FFC766  MPIDI_CH3I_Progre     Unknown  Unknown
libmpich_intel.so  000014F584F42D9D  MPIC_Wait             Unknown  Unknown
libmpich_intel.so  000014F584F43037  MPIC_Recv             Unknown  Unknown
libmpich_intel.so  000014F584F691EC  MPIR_CRAY_Bcast_T     Unknown  Unknown
libmpich_intel.so  000014F584F6B4DC  MPIR_CRAY_Bcast       Unknown  Unknown
libmpich_intel.so  000014F584E7ACCB  MPIR_Bcast_impl       Unknown  Unknown
libmpich_intel.so  000014F584E7543E  MPIR_Allreduce_in     Unknown  Unknown
libmpich_intel.so  000014F584F6623A  MPIR_CRAY_Allredu     Unknown  Unknown
libmpich_intel.so  000014F584E761E4  MPIR_Allreduce_im     Unknown  Unknown
libmpich_intel.so  000014F584E76B85  MPI_Allreduce         Unknown  Unknown
libmpich_intel.so  000014F584F389F2  mpi_allreduce_        Unknown  Unknown
vasp_std           000000002001D1FF  Unknown               Unknown  Unknown
vasp_std           000000002045E803  Unknown               Unknown  Unknown
vasp_std           00000000209C30FB  Unknown               Unknown  Unknown
vasp_std           0000000021113CF3  Unknown               Unknown  Unknown
vasp_std           0000000020010252  Unknown               Unknown  Unknown
libc-2.26.so       000014F584A4B3EA  __libc_start_main     Unknown  Unknown
vasp_std           000000002001016A  Unknown               Unknown  Unknown
forrtl: error (78): process killed (SIGTERM)
Image              PC                Routine            Line        Source             
vasp_std           0000000021190B5B  for__signal_handl     Unknown  Unknown
libpthread-2.26.s  000014F587473350  Unknown               Unknown  Unknown
libugni.so.0.6.0   000014F584192DD8  Unknown               Unknown  Unknown
libmpich_intel.so  000014F58501DE89  Unknown               Unknown  Unknown
libmpich_intel.so  000014F58501E99A  MPID_nem_gni_poll     Unknown  Unknown
libmpich_intel.so  000014F584FFC766  MPIDI_CH3I_Progre     Unknown  Unknown
libmpich_intel.so  000014F584F42D9D  MPIC_Wait             Unknown  Unknown
libmpich_intel.so  000014F584F43037  MPIC_Recv             Unknown  Unknown
libmpich_intel.so  000014F584F691EC  MPIR_CRAY_Bcast_T     Unknown  Unknown
libmpich_intel.so  000014F584F6B4DC  MPIR_CRAY_Bcast       Unknown  Unknown
libmpich_intel.so  000014F584E7ACCB  MPIR_Bcast_impl       Unknown  Unknown
libmpich_intel.so  000014F584E7543E  MPIR_Allreduce_in     Unknown  Unknown
libmpich_intel.so  000014F584F6623A  MPIR_CRAY_Allredu     Unknown  Unknown
libmpich_intel.so  000014F584E761E4  MPIR_Allreduce_im     Unknown  Unknown
libmpich_intel.so  000014F584E76B85  MPI_Allreduce         Unknown  Unknown
libmpich_intel.so  000014F584F389F2  mpi_allreduce_        Unknown  Unknown
vasp_std           000000002001D1FF  Unknown               Unknown  Unknown
vasp_std           000000002045E803  Unknown               Unknown  Unknown
vasp_std           00000000209C30FB  Unknown               Unknown  Unknown
vasp_std           0000000021113CF3  Unknown               Unknown  Unknown
vasp_std           0000000020010252  Unknown               Unknown  Unknown
libc-2.26.so       000014F584A4B3EA  __libc_start_main     Unknown  Unknown
vasp_std           000000002001016A  Unknown               Unknown  Unknown
  0000000021113CF3  Unknown               Unknown  Unknown
vasp_std           0000000020010252  Unknown               Unknown  Unknown
libc-2.26.so       000015016B5DE3EA  __libc_start_main     Unknown  Unknown
vasp_std           000000002001016A  Unknown               Unknown  Unknown
CB  MPIR_Bcast_impl       Unknown  Unknown
libmpich_intel.so  0000146CDC09943E  MPIR_Allreduce_in     Unknown  Unknown
libmpich_intel.so  0000146CDC18A23A  MPIR_CRAY_Allredu     Unknown  Unknown
libmpich_intel.so  0000146CDC09A1E4  MPIR_Allreduce_im     Unknown  Unknown
libmpich_intel.so  0000146CDC09AB85  MPI_Allreduce         Unknown  Unknown
libmpich_intel.so  0000146CDC15C9F2  mpi_allreduce_        Unknown  Unknown
vasp_std           000000002001D1FF  Unknown               Unknown  Unknown
vasp_std           000000002045E803  Unknown               Unknown  Unknown
vasp_std           00000000209C30FB  Unknown               Unknown  Unknown
vasp_std           0000000021113CF3  Unknown               Unknown  Unknown
vasp_std           0000000020010252  Unknown               Unknown  Unknown
libc-2.26.so       0000146CDBC6F3EA  __libc_start_main     Unknown  Unknown
vasp_std           000000002001016A  Unknown               Unknown  Unknown
forrtl: error (78): process killed (SIGTERM)
Image              PC                Routine            Line        Source             
vasp_std           0000000021190B5B  for__signal_handl     Unknown  Unknown
libpthread-2.26.s  0000146CDE697350  Unknown               Unknown  Unknown
libugni.so.0.6.0   0000146CDB3EB6EF  GNI_SmsgGetNextWT     Unknown  Unknown
libmpich_intel.so  0000146CDC2435E0  MPID_nem_gni_poll     Unknown  Unknown
libmpich_intel.so  0000146CDC220766  MPIDI_CH3I_Progre     Unknown  Unknown
libmpich_intel.so  0000146CDC166D9D  MPIC_Wait             Unknown  Unknown
libmpich_intel.so  0000146CDC167037  MPIC_Recv             Unknown  Unknown
libmpich_intel.so  0000146CDC18D1EC  MPIR_CRAY_Bcast_T     Unknown  Unknown
libmpich_intel.so  0000146CDC18F4DC  MPIR_CRAY_Bcast       Unknown  Unknown
libmpich_intel.so  0000146CDC09ECCB  MPIR_Bcast_impl       Unknown  Unknown
libmpich_intel.so  0000146CDC09943E  MPIR_Allreduce_in     Unknown  Unknown
libmpich_intel.so  0000146CDC18A23A  MPIR_CRAY_Allredu     Unknown  Unknown
libmpich_intel.so  0000146CDC09A1E4  MPIR_AllredBF04D9D  MPIC_Wait             Unknown  Unknown
libmpich_intel.so  000015212BF05037  MPIC_Recv             Unknown  Unknown
libmpich_intel.so  000015212BF2B1EC  MPIR_CRAY_Bcast_T     Unknown  Unknown
libmpich_intel.so  000015212BF2D4DC  MPIR_CRAY_Bcast       Unknown  Unknown
libmpich_intel.so  000015212BE3CCCB  MPIR_Bcast_impl       Unknown  Unknown
libmpich_intel.so  000015212BE3743E  MPIR_Allreduce_in     Unknown  Unknown
libmpich_intel.so  000015212BF2823A  MPIR_CRAY_Allredu     Unknown  Unknown
libmpich_intel.so  000015212BE381E4  MPIR_Allreduce_im     Unknown  Unknown
libmpich_intel.so  000015212BE38B85  MPI_Allreduce         Unknown  Unknown
libmpich_intel.so  000015212BEFA9F2  mpi_allreduce_        Unknown  Unknown
vasp_std           000000002001D1FF  Unknown               Unknown  Unknown
vasp_std           000000002045E803  Unknown               Unknown  Unknown
vasp_std           00000000209C30FB  Unknown               Unknown  Unknown
vasp_std           0000000021113CF3  Unknown               Unknown  Unknown
vasp_std           0000000020010252  Unknown               Unknown  Unknown
libc-2.26.so       000015212BA0D3EA  __libc_start_main     Unknown  Unknown
vasp_std           000000002001016A  Unknown               Unknown  Unknown
forrtl: error (78): process killed (SIGTERM)
Image              PC                Routine            Line        Source             
vasp_std           0000000021190B5B  for__signal_handl     Unknown  Unknown
libpthread-2.26.s  000015212E435350  Unknown               Unknown  Unknown
libugni.so.0.6.0   000015212B15AFBD  GNII_DlaProgress      Unknown  Unknown
libugni.so.0.6.0   000015212B155192  GNI_CqGetEvent        Unknown  Unknown
libmpich_intel.so  000015212BFDFE89  Unknown               Unknown  Unknown
libmpich_intel.so  000015212BFE099A  MPID_nem_gni_poll     Unknown  Unknown
libmpich_intel.so  000015212BFBE766  MPIDI_CH3I_Progre     Unknown  Unknown
libmpich_intel.so  000015212BF04D9D  MPIC_Wait             Unknown  Unknown
libmpich_intel.so  000015212BF05037  MPIC_Rforrtl: error (78): process killed (SIGTERM)
Image              PC                Routine            Line        Source             
vasp_std           0000000021190B5B  for__signal_handl     Unknown  Unknown
libpthread-2.26.s  0000145615C98350  Unknown               Unknown  Unknown
libugni.so.0.6.0   00001456129B819D  GNI_CqGetEvent        Unknown  Unknown
libmpich_intel.so  0000145613842E89  Unknown               Unknown  Unknown
libmpich_intel.so  000014561384399A  MPID_nem_gni_poll     Unknown  Unknown
libmpich_intel.so  0000145613821766  MPIDI_CH3I_Progre     Unknown  Unknown
libmpich_intel.so  0000145613767D9D  MPIC_Wait             Unknown  Unknown
libmpich_intel.so  0000145613768037  MPIC_Recv             Unknown  Unknown
libmpich_intel.so  000014561378E1EC  MPIR_CRAY_Bcast_T     Unknown  Unknown
libmpich_intel.so  00001456137904DC  MPIR_CRAY_Bcast       Unknown  Unknown
libmpich_intel.so  000014561369FCCB  MPIR_Bcast_impl       Unknown  Unknown
libmpich_intel.so  000014561369A43E  MPIR_Allreduce_in     Unknown  Unknown
libmpich_intel.so  000014561378B23A  MPIR_CRAY_Allredu     Unknown  Unknown
libmpich_intel.so  000014561369B1E4  MPIR_Allreduce_im     Unknown  Unknown
libmpich_intel.so  000014561369BB85  MPI_Allreduce         Unknown  Unknown
libmpich_intel.so  000014561375D9F2  mpi_allreduce_        Unknown  Unknown
vasp_std           000000002001D1FF  Unknown               Unknown  Unknown
vasp_std           000000002045E803  Unknown               Unknown  Unknown
vasp_std           00000000209C30FB  Unknown               Unknown  Unknown
vasp_std           0000000021113CF3  Unknown               Unknown  Unknown
vasp_std           0000000020010252  Unknown               Unknown  Unknown
libc-2.26.so       00001456132703EA  __libc_start_main     Unknown  Unknown
vasp_std           000000002001016A  Unknown               Unknown  Unknown
        Line        Source             
vasp_std           0000000021190B5B  for__signal_handl     Unknown  Unknown
libpthread-2.26.s  00001542C0625350  Unknown               Unknown  Unknown
libugni.so.0.6.0   00001542BD34AF64  GNII_DlaProgress      Unknown  Unknown
libugni.so.0.6.0   00001542BD345192  GNI_CqGetEvent        Unknown  Unknown
libmpich_intel.so  00001542BE1CFE89  Unknown               Unknown  Unknown
libmpich_intel.so  00001542BE1D099A  MPID_nem_gni_poll     Unknown  Unknown
libmpich_intel.so  00001542BE1AE766  MPIDI_CH3I_Progre     Unknown  Unknown
libmpich_intel.so  00001542BE0F4D9D  MPIC_Wait             Unknown  Unknown
libmpich_intel.so  00001542BE0F5037  MPIC_Recv             Unknown  Unknown
libmpich_intel.so  00001542BE11B1EC  MPIR_CRAY_Bcast_T     Unknown  Unknown
libmpich_intel.so  00001542BE11D4DC  MPIR_CRAY_Bcast       Unknown  Unknown
libmpich_intel.so  00001542BE02CCCB  MPIR_Bcast_impl       Unknown  Unknown
libmpich_intel.so  00001542BE02743E  MPIR_Allreduce_in     Unknown  Unknown
libmpich_intel.so  00001542BE11823A  MPIR_CRAY_Allredu     Unknown  Unknown
libmpich_intel.so  00001542BE0281E4  MPIR_Allreduce_im     Unknown  Unknown
libmpich_intel.so  00001542BE028B85  MPI_Allreduce         Unknown  Unknown
libmpich_intel.so  00001542BE0EA9F2  mpi_allreduce_        Unknown  Unknown
vasp_std           000000002001D1FF  Unknown               Unknown  Unknown
vasp_std           000000002045E803  Unknown               Unknown  Unknown
vasp_std           00000000209C30FB  Unknown               Unknown  Unknown
vasp_std           0000000021113CF3  Unknown               Unknown  Unknown
vasp_std           0000000020010252  Unknown               Unknown  Unknown
libc-2.26.so       00001542BDBFD3EA  __libc_start_main     Unknown  Unknown
vasp_std           000000002001016A  Unknown               Unknown  Unknown
forrtl: error (78): process killed (SIGTERM)
Image              PC                Routine            Line        Source             
vasp_std           0000000021190B5B  for__signal_handl     Unknown  Unknown
libpthread-2.26.s  00001542C0625350  Unknown               Unknown  Unknown
libugni.so.0.6.0   00001542BD344E15  Unknown               Unknown  Unknown
libmpich_intel.so  00001542BE1CFE89  Unknown               Unknown  Unknown
libmpich_intel.so  00001542BE1D099A  MPID_nem_gni_poll     Unknown  Unknown
libmpich_intel.so  00001542BE1AE766  MPIDI_CH3I_Progre     Unknown  Unknown
libmpich_intel.so  00001542BE0F4D9D  MPIC_Wait             Unknown  Unknown
libmpich_intel.so  00001542BE0F5037  MPIC_Recv             Unknown  Unknown
libmpich_intel.so  00001542BE11B1EC  MPIR_CRAY_Bcast_T     Unknown  Unknown
libmpich_intel.so  00001542BE11D4DC  MPIR_CRAY_Bcast       Unknown  Unknown
libmpich_intel.so  00001542BE02CCCB  MPIR_Bcast_impl       Unknown  Unknown
libmpich_intel.so  00001542BE02743E  MPIR_Allreduce_in     Unknown  Unknown
libmpich_intel.so  00001542BE11823A  MPIR_CRAY_Allredu     Unknown  Unknown
libmpich_intel.so  00001542BE0281E4  MPIR_Allreduce_im     Unknown  Unknown
libmpich_intel.so  00001542BE028B85  MPI_Allreduce         Unknown  Unknown
libmpich_intel.so  00001542BE0EA9F2  mpi_allreduce_        Unknown  Unknown
vasp_std           000000002001D1FF  Unknown               Unknown  Unknown
vasp_std           000000002045E803  Unknown               Unknown  Unknown
vasp_std           00000000209C30FB  Unknown               Unknown  Unknown
vasp_std           0000000021113CF3  Unknown               Unknown  Unknown
vasp_std           0000000020010252  Unknown               Unknown  Unknown
libc-2.26.so       00001542BDBFD3EA  __libc_start_main     Unknown  Unknown
vasp_std           000000002001016A  Unknown               Unknown  Unknown
ecv             Unknown  Unknown
libmpich_intel.so  000015212BF2B1EC  MPIR_CRAY_Bcast_T     Unknown  Unknown
libmpich_intel.so  000015212BF2D4DC  MPIR_CRAY_Bcast       Unknown  Unknown
libmpich_intel.so  000015212BE3CCCB  MPIR_Bcast_impl       Unknown  Unknown
libmpich_intel.so  000015212BE3743E  MPIR_Allreduce_in     Unknown  Unknown
libmpich_intel.so  000015212BF2823A  MPIR_CRAY_Allredu     Unknown  Unknown
libmpich_intel.so  000015212BE381E4  MPIR_Allreduce_im     Unknown  Unknown
libmpich_intel.so  000015212BE38B85  MPI_Allreduce         Unknown  Unknown
libmpich_intel.so  000015212BEFA9F2  mpi_allreduce_        Unknown  Unknown
vasp_std           000000002001D1FF  Unknown               Unknown  Unknown
vasp_std           000000002045E803  Unknown               Unknown  Unknown
vasp_std           00000000209C30FB  Unknown               Unknown  Unknown
vasp_std           0000000021113CF3  Unknown               Unknown  Unknown
vasp_std           0000000020010252  Unknown               Unknown  Unknown
libc-2.26.so       000015212BA0D3EA  __libc_start_main     Unknown  Unknown
vasp_std           000000002001016A  Unknown               Unknown  Unknown
uce_im     Unknown  Unknown
libmpich_intel.so  0000146CDC09AB85  MPI_Allreduce         Unknown  Unknown
libmpich_intel.so  0000146CDC15C9F2  mpi_allreduce_        Unknown  Unknown
vasp_std           000000002001D1FF  Unknown               Unknown  Unknown
vasp_std           000000002045E803  Unknown               Unknown  Unknown
vasp_std           00000000209C30FB  Unknown               Unknown  Unknown
vasp_std           0000000021113CF3  Unknown               Unknown  Unknown
vasp_std           0000000020010252  Unknown               Unknown  Unknown
libc-2.26.so       0000146CDBC6F3EA  __libc_start_main     Unknown  Unknown
vasp_std           000000002001016A  Unknown               Unknown  Unknown
forrtl: error (78): process killed (SIGTERM)
Image              PC                Routine            Line        Source             
vasp_std           0000000021190B5B  for__signal_handl     Unknown  Unknown
libpthread-2.26.s  000014F587473350  Unknown               Unknown  Unknown
libugni.so.0.6.0   000014F584198FC4  GNII_DlaProgress      Unknown  Unknown
libugni.so.0.6.0   000014F584193192  GNI_CqGetEvent        Unknown  Unknown
libmpich_intel.so  000014F58501DE89  Unknown               Unknown  Unknown
libmpich_intel.so  000014F58501E99A  MPID_nem_gni_poll     Unknown  Unknown
libmpich_intel.so  000014F584FFC766  MPIDI_CH3I_Progre     Unknown  Unknown
libmpich_intel.so  000014F584F42D9D  MPIC_Wait             Unknown  Unknown
libmpich_intel.so  000014F584F43037  MPIC_Recv             Unknown  Unknown
libmpich_intel.so  000014F584F691EC  MPIR_CRAY_Bcast_T     Unknown  Unknown
libmpich_intel.so  000014F584F6B4DC  MPIR_CRAY_Bcast       Unknown  Unknown
libmpich_intel.so  000014F584E7ACCB  MPIR_Bcast_impl       Unknown  Unknown
libmpich_intel.so  000014F584E7543E  MPIR_Allreduce_in     Unknown  Unknown
libmpich_intel.so  000014F584F6623A  MPIR_CRAY_Allredu     Unknown  Unknown
libmpich_intel.so  000014F584E761E4  MPIR_Allreduce_im     Unknown  Unknown
libmpich_intel.so  000014F584E76B85  MPI_Allreduce         Unknown  Unknown
libmpich_intel.so  000014F584F389F2  mpi_allreduce_        Unknown  Unknown
vasp_std           000000002001D1FF  Unknown               Unknown  Unknown
vasp_std           000000002045E803  Unknown               Unknown  Unknown
vasp_std           00000000209C30FB  Unknown               Unknown  Unknown
vasp_std           0000000021113CF3  Unknown               Unknown  Unknown
vasp_std           0000000020010252  Unknown               Unknown  Unknown
libc-2.26.so       000014F584A4B3EA  __libc_start_main     Unknown  Unknown
vasp_std           000000002001016A  Unknown               Unknown  Unknown
Application 37296564 exit codes: 1
Application 37296564 resources: utime ~28922s, stime ~89s, Rss ~383784, inblocks ~93646, outblocks ~0
