 vasp.5.4.4.18Apr17-6-g9f103f2a35 (build Sep 13 2022 11:49:33) complex          
  
 executed on             LinuxIFC date 2022.09.20  12:39:14
 running on  352 total cores
 distrk:  each k-point on  352 cores,    1 groups
 distr:  one band on NCORES_PER_BAND=   4 cores,   88 groups


--------------------------------------------------------------------------------------------------------


 INCAR:
 POTCAR:    PAW_PBE Ga_d 06Jul2010                
 POTCAR:    PAW_PBE N 08Apr2002                   
 POTCAR:    PAW_PBE C 08Apr2002                   

 ----------------------------------------------------------------------------- 
|                                                                             |
|           W    W    AA    RRRRR   N    N  II  N    N   GGGG   !!!           |
|           W    W   A  A   R    R  NN   N  II  NN   N  G    G  !!!           |
|           W    W  A    A  R    R  N N  N  II  N N  N  G       !!!           |
|           W WW W  AAAAAA  RRRRR   N  N N  II  N  N N  G  GGG   !            |
|           WW  WW  A    A  R   R   N   NN  II  N   NN  G    G                |
|           W    W  A    A  R    R  N    N  II  N    N   GGGG   !!!           |
|                                                                             |
|      For optimal performance we recommend to set                            |
|        NCORE= 4 - approx SQRT( number of cores)                             |
|      NCORE specifies how many cores store one orbital (NPAR=cpu/NCORE).     |
|      This setting can  greatly improve the performance of VASP for DFT.     |
|      The default,   NCORE=1            might be grossly inefficient         |
|      on modern multi-core architectures or massively parallel machines.     |
|      Do your own testing !!!!                                               |
|      Unfortunately you need to use the default for GW and RPA calculations. |
|      (for HF NCORE is supported but not extensively tested yet)             |
|                                                                             |
 ----------------------------------------------------------------------------- 

 POTCAR:    PAW_PBE Ga_d 06Jul2010                
   VRHFIN =Ga: s2p1                                                             
   LEXCH  = PE                                                                  
   EATOM  =  2148.8298 eV,  157.9345 Ry                                         
                                                                                
   TITEL  = PAW_PBE Ga_d 06Jul2010                                              
   LULTRA =        F    use ultrasoft PP ?                                      
   IUNSCR =        1    unscreen: 0-lin 1-nonlin 2-no                           
   RPACOR =    1.700    partial core radius                                     
   POMASS =   69.723; ZVAL   =   13.000    mass and valenz                      
   RCORE  =    2.300    outmost cutoff radius                                   
   RWIGS  =    2.300; RWIGS  =    1.217    wigner-seitz radius (au A)           
   ENMAX  =  282.691; ENMIN  =  212.018 eV                                      
   ICORE  =        3    local potential                                         
   LCOR   =        T    correct aug charges                                     
   LPAW   =        T    paw PP                                                  
   EAUG   =  490.690                                                            
   DEXC   =    0.000                                                            
   RMAX   =    2.341    core radius for proj-oper                               
   RAUG   =    1.300    factor for augmentation sphere                          
   RDEP   =    2.413    radius for radial grids                                 
   RDEPT  =    1.856    core radius for aug-charge                              
                                                                                
   Atomic configuration                                                         
    9 entries                                                                   
     n  l   j            E        occ.                                          
     1  0  0.50    -10228.7831   2.0000                                         
     2  0  0.50     -1262.1604   2.0000                                         
     2  1  1.50     -1098.6333   6.0000                                         
     3  0  0.50      -148.1110   2.0000                                         
     3  1  1.50       -98.8436   6.0000                                         
     3  2  2.50       -19.1549  10.0000                                         
     4  0  0.50        -8.9483   2.0000                                         
     4  1  0.50        -2.5791   1.0000                                         
     4  3  2.50        -2.7416   0.0000                                         
   Description                                                                  
     l       E           TYP  RCUT    TYP  RCUT                                 
     2    -19.1549037     23  2.300                                             
     2     -5.4423304     23  2.300                                             
     0     -8.9483111     23  2.300                                             
     0     68.0291300     23  2.300                                             
     1     -2.5790802     23  2.100                                             
     1     81.6349560     23  2.300                                             
     3      6.8029130     23  2.300                                             
  local pseudopotential read in
  partial core-charges read in
  partial kinetic energy density read in
  atomic valenz-charges read in
  non local Contribution for L=           2  read in
    real space projection operators read in
  non local Contribution for L=           2  read in
    real space projection operators read in
  non local Contribution for L=           0  read in
    real space projection operators read in
  non local Contribution for L=           0  read in
    real space projection operators read in
  non local Contribution for L=           1  read in
    real space projection operators read in
  non local Contribution for L=           1  read in
    real space projection operators read in
    PAW grid and wavefunctions read in
 
   number of l-projection  operators is LMAX  =           6
   number of lm-projection operators is LMMAX =          18
 
 POTCAR:    PAW_PBE N 08Apr2002                   
   VRHFIN =N: s2p3                                                              
   LEXCH  = PE                                                                  
   EATOM  =   264.5486 eV,   19.4438 Ry                                         
                                                                                
   TITEL  = PAW_PBE N 08Apr2002                                                 
   LULTRA =        F    use ultrasoft PP ?                                      
   IUNSCR =        1    unscreen: 0-lin 1-nonlin 2-no                           
   RPACOR =    1.200    partial core radius                                     
   POMASS =   14.001; ZVAL   =    5.000    mass and valenz                      
   RCORE  =    1.500    outmost cutoff radius                                   
   RWIGS  =    1.400; RWIGS  =    0.741    wigner-seitz radius (au A)           
   ENMAX  =  400.000; ENMIN  =  300.000 eV                                      
   ICORE  =        2    local potential                                         
   LCOR   =        T    correct aug charges                                     
   LPAW   =        T    paw PP                                                  
   EAUG   =  627.112                                                            
   DEXC   =    0.000                                                            
   RMAX   =    1.529    core radius for proj-oper                               
   RAUG   =    1.300    factor for augmentation sphere                          
   RDEP   =    1.514    radius for radial grids                                 
   RDEPT  =    1.338    core radius for aug-charge                              
                                                                                
   Atomic configuration                                                         
    4 entries                                                                   
     n  l   j            E        occ.                                          
     1  0  0.50      -384.7179   2.0000                                         
     2  0  0.50       -18.5828   2.0000                                         
     2  1  0.50        -7.0898   3.0000                                         
     3  2  1.50        -6.8029   0.0000                                         
   Description                                                                  
     l       E           TYP  RCUT    TYP  RCUT                                 
     0    -18.5828119     23  1.200                                             
     0    -13.5018863     23  1.200                                             
     1     -7.0897853     23  1.500                                             
     1      9.5240782     23  1.500                                             
     2     -6.8029130      7  1.500                                             
  local pseudopotential read in
  partial core-charges read in
  partial kinetic energy density read in
  atomic valenz-charges read in
  non local Contribution for L=           0  read in
    real space projection operators read in
  non local Contribution for L=           0  read in
    real space projection operators read in
  non local Contribution for L=           1  read in
    real space projection operators read in
  non local Contribution for L=           1  read in
    real space projection operators read in
    PAW grid and wavefunctions read in
 
   number of l-projection  operators is LMAX  =           4
   number of lm-projection operators is LMMAX =           8
 
 POTCAR:    PAW_PBE C 08Apr2002                   
   VRHFIN =C: s2p2                                                              
   LEXCH  = PE                                                                  
   EATOM  =   147.1560 eV,   10.8157 Ry                                         
                                                                                
   TITEL  = PAW_PBE C 08Apr2002                                                 
   LULTRA =        F    use ultrasoft PP ?                                      
   IUNSCR =        1    unscreen: 0-lin 1-nonlin 2-no                           
   RPACOR =    1.200    partial core radius                                     
   POMASS =   12.011; ZVAL   =    4.000    mass and valenz                      
   RCORE  =    1.500    outmost cutoff radius                                   
   RWIGS  =    1.630; RWIGS  =    0.863    wigner-seitz radius (au A)           
   ENMAX  =  400.000; ENMIN  =  300.000 eV                                      
   ICORE  =        2    local potential                                         
   LCOR   =        T    correct aug charges                                     
   LPAW   =        T    paw PP                                                  
   EAUG   =  644.873                                                            
   DEXC   =    0.000                                                            
   RMAX   =    1.529    core radius for proj-oper                               
   RAUG   =    1.300    factor for augmentation sphere                          
   RDEP   =    1.501    radius for radial grids                                 
   RDEPT  =    1.300    core radius for aug-charge                              
                                                                                
   Atomic configuration                                                         
    4 entries                                                                   
     n  l   j            E        occ.                                          
     1  0  0.50      -273.3789   2.0000                                         
     2  0  0.50       -13.7508   2.0000                                         
     2  1  0.50        -5.2854   2.0000                                         
     3  2  1.50        -5.4423   0.0000                                         
   Description                                                                  
     l       E           TYP  RCUT    TYP  RCUT                                 
     0    -13.7508458     23  1.200                                             
     0     -8.2022199     23  1.200                                             
     1     -5.2854383     23  1.500                                             
     1     34.0145650     23  1.500                                             
     2     -5.4423304      7  1.500                                             
  local pseudopotential read in
  partial core-charges read in
  partial kinetic energy density read in
  atomic valenz-charges read in
  non local Contribution for L=           0  read in
    real space projection operators read in
  non local Contribution for L=           0  read in
    real space projection operators read in
  non local Contribution for L=           1  read in
    real space projection operators read in
  non local Contribution for L=           1  read in
    real space projection operators read in
    PAW grid and wavefunctions read in
 
   number of l-projection  operators is LMAX  =           4
   number of lm-projection operators is LMMAX =           8
 

 ----------------------------------------------------------------------------- 
|                                                                             |
|  ADVICE TO THIS USER RUNNING 'VASP/VAMP'   (HEAR YOUR MASTER'S VOICE ...):  |
|                                                                             |
|      You have a (more or less) 'large supercell' and for larger cells       |
|      it might be more efficient to use real space projection opertators     |
|      So try LREAL= Auto  in the INCAR   file.                               |
|      Mind:          For very  accurate calculation you might also keep the  |
|      reciprocal projection scheme          (i.e. LREAL=.FALSE.)             |
|                                                                             |
 ----------------------------------------------------------------------------- 

  PAW_PBE Ga_d 06Jul2010                :
 energy of atom  1       EATOM=-2148.8298
 kinetic energy error for atom=    0.0102 (will be added to EATOM!!)
  PAW_PBE N 08Apr2002                   :
 energy of atom  2       EATOM= -264.5486
 kinetic energy error for atom=    0.0736 (will be added to EATOM!!)
  PAW_PBE C 08Apr2002                   :
 energy of atom  3       EATOM= -147.1560
 kinetic energy error for atom=    0.0288 (will be added to EATOM!!)
 
 
 POSCAR: GaN_CN                                  
  positions in direct lattice
  velocities in cartesian coordinates
 exchange correlation table for  LEXCH =        8
   RHO(1)=    0.500       N(1)  =     2000
   RHO(2)=  100.500       N(2)  =     4000
 


--------------------------------------------------------------------------------------------------------


 ion  position               nearest neighbor table
   1  0.166  0.082  0.500-  75 1.94  88 1.95  84 1.96  50 1.96
   2  0.166  0.083  1.000-  89 1.95  76 1.95  85 1.95  49 1.96
   3  0.168  0.584  0.500-  90 1.95  86 1.95  52 1.96  73 1.96
   4  0.167  0.583  1.000-  91 1.95  87 1.95  74 1.95  51 1.96
   5  0.500  0.082  0.500-  78 1.94  88 1.95  92 1.95  54 1.96
   6  0.500  0.083  0.000-  89 1.95  93 1.95  79 1.95  53 1.96
   7  0.500  0.586  0.500-  96 1.96  90 1.96  94 1.96  56 1.98
   8  0.500  0.584  0.998-  55 1.94  91 1.95  95 1.95  77 1.96
   9  0.834  0.082  0.500-  82 1.94  92 1.95  84 1.96  58 1.96
  10  0.834  0.083  1.000-  93 1.95  83 1.95  85 1.95  57 1.96
  11  0.832  0.584  0.500-  94 1.95  86 1.95  60 1.96  80 1.96
  12  0.833  0.583  1.000-  95 1.95  87 1.95  81 1.95  59 1.96
  13  0.000  0.332  0.500-  84 1.94  62 1.95  73 1.98  80 1.98
  14  0.000  0.333  1.000-  74 1.95  81 1.95  85 1.95  61 1.97
  15  0.000  0.832  0.500-  75 1.95  82 1.95  86 1.96  64 1.96
  16  0.000  0.833  1.000-  76 1.95  83 1.95  87 1.95  63 1.96
  17  0.333  0.327  0.504-  88 1.94  66 1.95  73 1.98  96 2.03
  18  0.333  0.333  0.998-  65 1.95  89 1.95  74 1.95  77 1.95
  19  0.333  0.834  0.500-  90 1.94  78 1.95  75 1.95  68 1.96
  20  0.333  0.833  1.000-  91 1.95  79 1.95  76 1.95  67 1.96
  21  0.667  0.327  0.504-  92 1.94  70 1.95  80 1.98  96 2.03
  22  0.667  0.333  0.998-  69 1.95  93 1.95  81 1.95  77 1.95
  23  0.667  0.834  0.500-  94 1.94  78 1.95  82 1.95  72 1.96
  24  0.667  0.833  1.000-  95 1.95  79 1.95  83 1.95  71 1.96
  25  0.168  0.417  0.248-  65 1.95  51 1.95  61 1.95  73 1.98
  26  0.166  0.417  0.750-  52 1.95  66 1.95  62 1.96  74 1.96
  27  0.166  0.917  0.250-  67 1.95  63 1.95  49 1.95  75 1.96
  28  0.166  0.917  0.750-  68 1.95  64 1.95  50 1.95  76 1.96
  29  0.500  0.418  0.246-  96 1.96  55 1.97  65 1.97  69 1.97
  30  0.500  0.418  0.749-  56 1.95  66 1.96  70 1.96  77 1.96
  31  0.500  0.917  0.250-  67 1.95  71 1.95  53 1.95  78 1.96
  32  0.500  0.917  0.750-  68 1.95  72 1.95  54 1.95  79 1.96
  33  0.832  0.417  0.248-  69 1.95  59 1.95  61 1.95  80 1.98
  34  0.834  0.417  0.750-  60 1.95  70 1.95  62 1.96  81 1.96
  35  0.834  0.917  0.250-  71 1.95  63 1.95  57 1.95  82 1.96
  36  0.834  0.917  0.750-  72 1.95  64 1.95  58 1.95  83 1.96
  37  0.000  0.167  0.249-  49 1.95  57 1.95  61 1.95  84 1.97
  38  0.000  0.167  0.750-  50 1.95  58 1.95  62 1.96  85 1.96
  39  0.000  0.667  0.250-  51 1.95  59 1.95  63 1.95  86 1.96
  40  0.000  0.667  0.750-  64 1.95  52 1.95  60 1.95  87 1.96
  41  0.333  0.167  0.249-  65 1.95  53 1.95  49 1.96  88 1.97
  42  0.333  0.166  0.751-  66 1.95  54 1.95  89 1.95  50 1.95
  43  0.334  0.667  0.249-  55 1.95  67 1.96  51 1.96  90 1.97
  44  0.333  0.668  0.750-  56 1.94  68 1.95  52 1.96  91 1.96
  45  0.667  0.167  0.249-  69 1.95  53 1.95  57 1.96  92 1.97
  46  0.667  0.166  0.751-  70 1.95  54 1.95  93 1.95  58 1.95
  47  0.666  0.667  0.249-  55 1.95  71 1.96  59 1.96  94 1.97
  48  0.667  0.668  0.750-  56 1.94  72 1.95  60 1.96  95 1.96
  49  0.166  0.084  0.188-  37 1.95  27 1.95  41 1.96   2 1.96
  50  0.166  0.083  0.688-  38 1.95  28 1.95  42 1.95   1 1.96
  51  0.167  0.584  0.188-  25 1.95  39 1.95  43 1.96   4 1.96
  52  0.167  0.584  0.688-  26 1.95  40 1.95  44 1.96   3 1.96
  53  0.500  0.084  0.188-  41 1.95  45 1.95  31 1.95   6 1.96
  54  0.500  0.083  0.688-  42 1.95  46 1.95  32 1.95   5 1.96
  55  0.500  0.586  0.184-   8 1.94  43 1.95  47 1.95  29 1.97
  56  0.500  0.586  0.690-  44 1.94  48 1.94  30 1.95   7 1.98
  57  0.834  0.084  0.188-  37 1.95  35 1.95  45 1.96  10 1.96
  58  0.834  0.083  0.688-  38 1.95  36 1.95  46 1.95   9 1.96
  59  0.833  0.584  0.188-  33 1.95  39 1.95  47 1.96  12 1.96
  60  0.833  0.584  0.688-  34 1.95  40 1.95  48 1.96  11 1.96
  61  0.000  0.334  0.189-  37 1.95  25 1.95  33 1.95  14 1.97
  62  0.000  0.334  0.688-  13 1.95  26 1.96  34 1.96  38 1.96
  63  0.000  0.833  0.188-  27 1.95  35 1.95  39 1.95  16 1.96
  64  0.000  0.833  0.688-  40 1.95  28 1.95  36 1.95  15 1.96
  65  0.332  0.333  0.185-  25 1.95  18 1.95  41 1.95  29 1.97
  66  0.333  0.332  0.690-  17 1.95  42 1.95  26 1.95  30 1.96
  67  0.333  0.834  0.188-  27 1.95  31 1.95  43 1.96  20 1.96
  68  0.333  0.834  0.688-  28 1.95  32 1.95  44 1.95  19 1.96
  69  0.668  0.333  0.185-  33 1.95  22 1.95  45 1.95  29 1.97
  70  0.667  0.332  0.690-  21 1.95  46 1.95  34 1.95  30 1.96
  71  0.667  0.834  0.188-  35 1.95  31 1.95  47 1.96  24 1.96
  72  0.667  0.834  0.688-  36 1.95  32 1.95  48 1.95  23 1.96
  73  0.169  0.416  0.438-   3 1.96  25 1.98  13 1.98  17 1.98
  74  0.166  0.417  0.938-  14 1.95   4 1.95  18 1.95  26 1.96
  75  0.166  0.916  0.438-   1 1.94  15 1.95  19 1.95  27 1.96
  76  0.166  0.917  0.938-   2 1.95  16 1.95  20 1.95  28 1.96
  77  0.500  0.417  0.937-  18 1.95  22 1.95   8 1.96  30 1.96
  78  0.500  0.916  0.438-   5 1.94  19 1.95  23 1.95  31 1.96
  79  0.500  0.916  0.938-   6 1.95  20 1.95  24 1.95  32 1.96
  80  0.831  0.416  0.438-  11 1.96  33 1.98  13 1.98  21 1.98
  81  0.834  0.417  0.938-  14 1.95  12 1.95  22 1.95  34 1.96
  82  0.834  0.916  0.438-   9 1.94  15 1.95  23 1.95  35 1.96
  83  0.834  0.917  0.938-  10 1.95  16 1.95  24 1.95  36 1.96
  84  0.000  0.167  0.438-  13 1.94   1 1.96   9 1.96  37 1.97
  85  0.000  0.167  0.938-  14 1.95   2 1.95  10 1.95  38 1.96
  86  0.000  0.665  0.438-   3 1.95  11 1.95  15 1.96  39 1.96
  87  0.000  0.666  0.938-  16 1.95   4 1.95  12 1.95  40 1.96
  88  0.332  0.164  0.438-  17 1.94   1 1.95   5 1.95  41 1.97
  89  0.333  0.166  0.938-   2 1.95   6 1.95  42 1.95  18 1.95
  90  0.332  0.669  0.438-  19 1.94   3 1.95   7 1.96  43 1.97
  91  0.333  0.667  0.938-   4 1.95  20 1.95   8 1.95  44 1.96
  92  0.668  0.164  0.438-  21 1.94   9 1.95   5 1.95  45 1.97
  93  0.667  0.166  0.938-  10 1.95   6 1.95  46 1.95  22 1.95
  94  0.668  0.669  0.438-  23 1.94  11 1.95   7 1.96  47 1.97
  95  0.667  0.667  0.938-  12 1.95  24 1.95   8 1.95  48 1.96
  96  0.500  0.421  0.435-   7 1.96  29 1.96  17 2.03  21 2.03
 
  LATTYP: Found a simple orthorhombic cell.
 ALAT       =     9.5889339447
 B/A-ratio  =     1.0867945084
 C/A-ratio  =     1.1547005856
  
  Lattice vectors:
  
 A1 = (  -9.5889339447,   0.0000000000,   0.0000000000)
 A2 = (   0.0000000000,   0.0000000000, -10.4212007523)
 A3 = (   0.0000000000, -11.0723476410,   0.0000000000)


Analysis of symmetry for initial positions (statically):
=====================================================================
 Subroutine PRICEL returns:
 Original cell was already a primitive cell.
 

 Routine SETGRP: Setting up the symmetry group for a 
 simple orthorhombic supercell.


 Subroutine GETGRP returns: Found  2 space group operations
 (whereof  2 operations were pure point group operations)
 out of a pool of  8 trial point group operations.


The static configuration has the point symmetry C_1h.


Analysis of symmetry for dynamics (positions and initial velocities):
=====================================================================
 Subroutine PRICEL returns:
 Original cell was already a primitive cell.
 

 Routine SETGRP: Setting up the symmetry group for a 
 simple orthorhombic supercell.


 Subroutine GETGRP returns: Found  2 space group operations
 (whereof  2 operations were pure point group operations)
 out of a pool of  8 trial point group operations.


The dynamic configuration has the point symmetry C_1h.


Analysis of structural, dynamic, and magnetic symmetry:
=====================================================================
 Subroutine PRICEL returns:
 Original cell was already a primitive cell.
 

 Routine SETGRP: Setting up the symmetry group for a 
 simple orthorhombic supercell.


 Subroutine GETGRP returns: Found  2 space group operations
 (whereof  2 operations were pure point group operations)
 out of a pool of  8 trial point group operations.


The magnetic configuration has the point symmetry C_1h.


 Subroutine INISYM returns: Found  2 space group operations
 (whereof  2 operations are pure point group operations),
 and found     1 'primitive' translations

 
 
 KPOINTS: K-points                                

Automatic generation of k-mesh.
Space group operators:
 irot       det(A)        alpha          n_x          n_y          n_z        tau_x        tau_y        tau_z
    1     1.000000     0.000001     1.000000     0.000000     0.000000     0.000000     0.000000     0.000000
    2    -1.000000   179.999999     1.000000     0.000000     0.000000     0.000000     0.000000     0.000000
 
 Subroutine IBZKPT returns following result:
 ===========================================
 
 Found      1 irreducible k-points:
 
 Following reciprocal coordinates:
            Coordinates               Weight
  0.000000  0.000000  0.000000      1.000000
 
 Following cartesian coordinates:
            Coordinates               Weight
  0.000000  0.000000  0.000000      1.000000
 
 
 Subroutine IBZKPT_HF returns following result:
 ==============================================
 
 Found      1 k-points in 1st BZ
 the following      1 k-points will be used (e.g. in the exchange kernel)
 Following reciprocal coordinates:   # in IRBZ
  0.000000  0.000000  0.000000    1.00000000   1 t-inv F


--------------------------------------------------------------------------------------------------------




 Dimension of arrays:
   k-points           NKPTS =      1   k-points in BZ     NKDIM =      1   number of bands    NBANDS=    616
   number of dos      NEDOS =    301   number of ions     NIONS =     96
   non local maximal  LDIM  =      6   non local SUM 2l+1 LMDIM =     18
   total plane-waves  NPLWV = 139968
   max r-space proj   IRMAX =      1   max aug-charges    IRDMAX=   4993
   dimension x,y,z NGX =    48 NGY =   54 NGZ =   54
   dimension x,y,z NGXF=    96 NGYF=  108 NGZF=  108
   support grid    NGXF=    96 NGYF=  108 NGZF=  108
   ions per type =              48  47   1
   NGX,Y,Z   is equivalent  to a cutoff of   8.32,  8.11,  8.61 a.u.
   NGXF,Y,Z  is equivalent  to a cutoff of  16.64, 16.22, 17.23 a.u.

 SYSTEM =  unknown system                          
 POSCAR =  GaN_CN                                  

 Startparameter for this run:
   NWRITE =      2    write-flag & timer
   PREC   = normal    normal or accurate (medium, high low for compatibility)
   ISTART =      1    job   : 0-new  1-cont  2-samecut
   ICHARG =      1    charge: 1-file 2-atom 10-const
   ISPIN  =      2    spin polarized calculation?
   LNONCOLLINEAR =      F non collinear calculations
   LSORBIT =      F    spin-orbit coupling
   INIWAV =      1    electr: 0-lowe 1-rand  2-diag
   LASPH  =      F    aspherical Exc in radial PAW
   METAGGA=      F    non-selfconsistent MetaGGA calc.

 Electronic Relaxation 1
   ENCUT  =  400.0 eV  29.40 Ry    5.42 a.u.  15.64 18.06 16.99*2*pi/ulx,y,z
   ENINI  =  400.0     initial cutoff
   ENAUG  =  644.9 eV  augmentation charge cutoff
   NELM   =     50;   NELMIN=  5; NELMDL=  0     # of ELM steps 
   EDIFF  = 0.1E-04   stopping-criterion for ELM
   LREAL  =      F    real-space projection
   NLSPLINE    = F    spline interpolate recip. space projectors
   LCOMPAT=      F    compatible to vasp.4.4
   GGA_COMPAT  = T    GGA compatible to vasp.4.4-vasp.4.6
   LMAXPAW     = -100 max onsite density
   LMAXMIX     =    2 max onsite mixed and CHGCAR
   VOSKOWN=      0    Vosko Wilk Nusair interpolation
   ROPT   =    0.00000   0.00000   0.00000
 Ionic relaxation
   EDIFFG = -.1E-03   stopping-criterion for IOM
   NSW    =    300    number of steps for IOM
   NBLOCK =      1;   KBLOCK =    300    inner block; outer block 
   IBRION =      1    ionic relax: 0-MD 1-quasi-New 2-CG
   NFREE  =      0    steps in history (QN), initial steepest desc. (CG)
   ISIF   =      2    stress and relaxation
   IWAVPR =     11    prediction:  0-non 1-charg 2-wave 3-comb
   ISYM   =      3    0-nonsym 1-usesym 2-fastsym
   LCORR  =      T    Harris-Foulkes like correction to forces

   POTIM  = 0.5000    time-step for ionic-motion
   TEIN   =    0.0    initial temperature
   TEBEG  =    0.0;   TEEND  =   0.0 temperature during run
   SMASS  =  -3.00    Nose mass-parameter (am)
   estimated Nose-frequenzy (Omega)   =  0.10E-29 period in steps =****** mass=  -0.210E-26a.u.
   SCALEE = 1.0000    scale energy and forces
   NPACO  =    256;   APACO  = 16.0  distance and # of slots for P.C.
   PSTRESS=    0.0 pullay stress

  Mass of Ions in am
   POMASS =  69.72 14.00 12.01
  Ionic Valenz
   ZVAL   =  13.00  5.00  4.00
  Atomic Wigner-Seitz radii
   RWIGS  =  -1.00 -1.00 -1.00
  virtual crystal weights 
   VCA    =   1.00  1.00  1.00
   NELECT =     863.0000    total number of electrons
   NUPDOWN=      -1.0000    fix difference up-down

 DOS related values:
   EMIN   =  10.00;   EMAX   =-10.00  energy-range for DOS
   EFERMI =   0.00
   ISMEAR =     0;   SIGMA  =   0.00  broadening in eV -4-tet -1-fermi 0-gaus

 Electronic relaxation 2 (details)
   IALGO  =     53    algorithm
   LDIAG  =      T    sub-space diagonalisation (order eigenvalues)
   LSUBROT=      F    optimize rotation matrix (better conditioning)
   TURBO    =      0    0=normal 1=particle mesh
   IRESTART =      0    0=no restart 2=restart with 2 vectors
   NREBOOT  =      0    no. of reboots
   NMIN     =      0    reboot dimension
   EREF     =   0.00    reference energy to select bands
   IMIX   =      4    mixing-type and parameters
     AMIX     =   0.40;   BMIX     =  1.00
     AMIX_MAG =   1.60;   BMIX_MAG =  1.00
     AMIN     =   0.10
     WC   =   100.;   INIMIX=   1;  MIXPRE=   1;  MAXMIX= -45

 Intra band minimization:
   WEIMIN = 0.0010     energy-eigenvalue tresh-hold
   EBREAK =  0.41E-08  absolut break condition
   DEPER  =   0.30     relativ break condition  

   TIME   =   0.50     timestep for ELM

  volume/ion in A,a.u.               =      11.53        77.78
  Fermi-wavevector in a.u.,A,eV,Ry     =   1.506963  2.847747 30.897967  2.270937
  Thomas-Fermi vector in A             =   2.617611
 
 Write flags
   LWAVE        =      T    write WAVECAR
   LDOWNSAMPLE  =      F    k-point downsampling of WAVECAR
   LCHARG       =      T    write CHGCAR
   LVTOT        =      F    write LOCPOT, total local potential
   LVHAR        =      F    write LOCPOT, Hartree potential only
   LELF         =      F    write electronic localiz. function (ELF)
   LORBIT       =      0    0 simple, 1 ext, 2 COOP (PROOUT), +10 PAW based schemes


 Dipole corrections
   LMONO  =      F    monopole corrections only (constant potential shift)
   LDIPOL =      F    correct potential (dipole corrections)
   IDIPOL =      0    1-x, 2-y, 3-z, 4-all directions 
   EPSILON=  1.0000000 bulk dielectric constant

 Exchange correlation treatment:
   GGA     =    --    GGA type
   LEXCH   =     8    internal setting for exchange type
   VOSKOWN=      0    Vosko Wilk Nusair interpolation
   EXXOEP  =     0    0=HF, 1=EXX-LHF (local Hartree Fock) 2=EXX OEP
   LHFCALC =     T    Hartree Fock is set to
   LSYMGRAD=     F    symmetrize gradient (conserves proper symmetry)
   PRECFOCK=normal    Normal, Fast or Accurate (Low or Medium for compatibility)
   LRHFCALC=     F    long range Hartree Fock
   LRSCOR  =     F    long range correlation only (use DFT for short range part)
   LTHOMAS =     F    Thomas Fermi screening in HF
   LMODELHF=     F    short range full HF, long range fraction AEXX
   ENCUT4O =  -1.0   cutoff for four orbital integrals eV
   LMAXFOCK=     4    L truncation for augmentation on plane wave grid
   LMAXFOCKAE=  -1    L truncation for all-electron charge restoration on plane wave grid
   NMAXFOCKAE=   1    number of basis functions for all-electron charge restoration
   LFOCKAEDFT=     F  apply the AE augmentation even for DFT
   NKREDX  =     1    reduce k-point grid by
   NKREDY  =     1    reduce k-point grid by
   NKREDZ  =     1    reduce k-point grid by
   SHIFTRED=     F    shift reduced grid of Gamma
   HFKIDENT=     F    idential grid for each k-point
   ODDONLY =     F    use only odd q-grid points
   EVENONLY=     F    use only even q-grid points
   HFALPHA =   -1.0000 decay constant for conv. correction
   MCALPHA =    0.0000 extent of test-charge in conv. correction in multipole expansion
   AEXX    =    0.3000 exact exchange contribution
   HFSCREEN=    0.2000 screening length (either q_TF or 0.3 A-1)
   HFSCREENC=   0.2000 screening length for correlation (either q_TF or 0.3 A-1)
   HFRCUT  =    0.0000 spherical cutoff for potential kernel
   ALDAX   =    0.7000 LDA exchange part
   AGGAX   =    0.7000 GGA exchange part
   ALDAC   =    1.0000 LDA correlation
   AGGAC   =    1.0000 GGA correlation
   ENCUTFOCK=  -1.0 apply spherical cutoff to Coloumb kernel
   NBANDSGWLOW=     1    first orbital included in HF term
   NBLOCK_FOCK=    64    blocking factor in FOCK_ACC
 Linear response parameters
   LEPSILON=     F    determine dielectric tensor
   LRPA    =     F    only Hartree local field effects (RPA)
   LNABLA  =     F    use nabla operator in PAW spheres
   LVEL    =     F    velocity operator in full k-point grid
   LINTERFAST=   F  fast interpolation
   KINTER  =     0    interpolate to denser k-point grid
   CSHIFT  =0.1000    complex shift for real part using Kramers Kronig
   OMEGAMAX=  -1.0    maximum frequency
   DEG_THRESHOLD= 0.2000000E-02 threshold for treating states as degnerate
   RTIME   =   -0.100 relaxation time in fs
  (WPLASMAI=    0.000 imaginary part of plasma frequency in eV, 0.658/RTIME)
   DFIELD  = 0.0000000 0.0000000 0.0000000 field for delta impulse in time
 
 Orbital magnetization related:
   ORBITALMAG=     F  switch on orbital magnetization
   LCHIMAG   =     F  perturbation theory with respect to B field
   DQ        =  0.001000  dq finite difference perturbation B field
   LLRAUG    =     F  two centre corrections for induced B field



--------------------------------------------------------------------------------------------------------


 quasi-Newton-method for relaxation of ions
 charge density and potential will be updated during run
 spin polarized calculation
 Conjugate gradient for all bands (Freysoldt, et al. PRB 79, 241103 (2009))
 perform sub-space diagonalisation
    before iterative eigenvector-optimisation
 modified Broyden-mixing scheme, WC =      100.0
 initial mixing is a Kerker type mixing with AMIX =  0.4000 and BMIX =      1.0000
 Hartree-type preconditioning will be used
 using additional bands          184
 reciprocal scheme for non local part
 use partial core corrections
 no Harris-corrections to forces 
 use gradient corrections 
 use of overlap-Matrix (Vanderbilt PP)
 Gauss-broadening in eV      SIGMA  =   0.00


--------------------------------------------------------------------------------------------------------


  energy-cutoff  :      400.00
  volume of cell :     1106.44
      direct lattice vectors                 reciprocal lattice vectors
     9.588933945  0.000000000  0.000000000     0.104286880  0.000000000  0.000000000
     0.000000000 11.072347641  0.000000000     0.000000000  0.090315083  0.000000000
     0.000000000  0.000000000 10.421200752     0.000000000  0.000000000  0.095958232

  length of vectors
     9.588933945 11.072347641 10.421200752     0.104286880  0.090315083  0.095958232


 
 old parameters found on file WAVECAR:
  energy-cutoff  :      400.00
  volume of cell :     1106.44
      direct lattice vectors                 reciprocal lattice vectors
     9.588933945  0.000000000  0.000000000     0.104286880  0.000000000  0.000000000
     0.000000000 11.072347641  0.000000000     0.000000000  0.090315083  0.000000000
     0.000000000  0.000000000 10.421200752     0.000000000  0.000000000  0.095958232

  length of vectors

 
 k-points in units of 2pi/SCALE and weight: K-points                                
   0.00000000  0.00000000  0.00000000       1.000
 
 k-points in reciprocal lattice and weights: K-points                                
   0.00000000  0.00000000  0.00000000       1.000
 
 position of ions in fractional coordinates (direct lattice) 
   0.16566776  0.08171642  0.49995486
   0.16647939  0.08300943  0.99998905
   0.16794409  0.58381456  0.49951186
   0.16674776  0.58334498  0.99965297
   0.50000000  0.08185541  0.49955087
   0.50000000  0.08277190  0.00016057
   0.50000000  0.58613345  0.50025406
   0.50000000  0.58407057  0.99765486
   0.83433222  0.08171642  0.49995486
   0.83352060  0.08300943  0.99998905
   0.83205589  0.58381456  0.49951186
   0.83325223  0.58334498  0.99965297
   0.00000000  0.33187093  0.50039501
   0.00000000  0.33335260  0.99984520
   0.00000000  0.83210816  0.49958932
   0.00000000  0.83292601  0.99971706
   0.33334142  0.32743730  0.50367908
   0.33327814  0.33292909  0.99782487
   0.33282796  0.83413744  0.49957743
   0.33316846  0.83329955  0.99976463
   0.66665861  0.32743730  0.50367908
   0.66672189  0.33292909  0.99782487
   0.66717207  0.83413744  0.49957743
   0.66683157  0.83329955  0.99976463
   0.16787425  0.41675159  0.24819455
   0.16634666  0.41739819  0.74996046
   0.16648601  0.91690485  0.24955049
   0.16634926  0.91681115  0.74995068
   0.50000000  0.41794976  0.24601618
   0.50000000  0.41808159  0.74851281
   0.50000000  0.91705539  0.24953818
   0.50000000  0.91677451  0.74981436
   0.83212574  0.41675159  0.24819455
   0.83365332  0.41739819  0.74996046
   0.83351397  0.91690485  0.24955049
   0.83365073  0.91681115  0.74995068
   0.00000000  0.16705344  0.24941476
   0.00000000  0.16687120  0.75015232
   0.00000000  0.66660088  0.24956649
   0.00000000  0.66673415  0.74952979
   0.33330338  0.16741388  0.24910999
   0.33332013  0.16561140  0.75077692
   0.33409062  0.66721930  0.24916336
   0.33307465  0.66779098  0.74978308
   0.66669665  0.16741388  0.24910999
   0.66667990  0.16561140  0.75077692
   0.66590941  0.66721930  0.24916336
   0.66692538  0.66779098  0.74978308
   0.16642925  0.08365385  0.18826591
   0.16625889  0.08343556  0.68827199
   0.16688713  0.58360646  0.18818738
   0.16682378  0.58356460  0.68774780
   0.50000000  0.08378268  0.18844132
   0.50000000  0.08336421  0.68798365
   0.50000000  0.58562216  0.18420759
   0.50000000  0.58569839  0.68991696
   0.83357074  0.08365385  0.18826591
   0.83374110  0.08343556  0.68827199
   0.83311286  0.58360646  0.18818738
   0.83317620  0.58356460  0.68774780
   0.00000000  0.33394085  0.18854818
   0.00000000  0.33358408  0.68780269
   0.00000000  0.83329731  0.18810385
   0.00000000  0.83324890  0.68806804
   0.33245853  0.33300421  0.18501885
   0.33255819  0.33235452  0.69025170
   0.33315901  0.83419426  0.18797782
   0.33302024  0.83433359  0.68805072
   0.66754150  0.33300421  0.18501885
   0.66744184  0.33235452  0.69025170
   0.66684102  0.83419426  0.18797782
   0.66697979  0.83433359  0.68805072
   0.16883773  0.41612342  0.43780937
   0.16621062  0.41673988  0.93774723
   0.16556661  0.91627074  0.43795393
   0.16637004  0.91656541  0.93821230
   0.50000000  0.41672779  0.93681152
   0.50000000  0.91629209  0.43792754
   0.50000000  0.91637376  0.93814937
   0.83116226  0.41612342  0.43780937
   0.83378937  0.41673988  0.93774723
   0.83443338  0.91627074  0.43795393
   0.83362994  0.91656541  0.93821230
   0.00000000  0.16659523  0.43810538
   0.00000000  0.16675914  0.93833950
   0.00000000  0.66528509  0.43805993
   0.00000000  0.66637924  0.93796822
   0.33235084  0.16385590  0.43804575
   0.33333506  0.16561341  0.93823501
   0.33226752  0.66912689  0.43779833
   0.33250041  0.66710195  0.93764666
   0.66764919  0.16385590  0.43804575
   0.66666497  0.16561341  0.93823501
   0.66773251  0.66912689  0.43779833
   0.66749962  0.66710195  0.93764666
   0.50000000  0.42056843  0.43452438
 
 position of ions in cartesian coordinates  (Angst):
   1.58857722  0.90479262  5.21012992
   1.59635984  0.91910930 10.42108668
   1.61040480  6.46419781  5.20551332
   1.59893323  6.45899845 10.41758428
   4.79446697  0.90633150  5.20591988
   4.79446697  0.91647920  0.00167338
   4.79446697  6.48987329  5.21324800
   4.79446697  6.46703237 10.39676155
   8.00035658  0.90479262  5.21012992
   7.99257396  0.91910930 10.42108668
   7.97852900  6.46419781  5.20551332
   7.99000057  6.45899845 10.41758428
   0.00000000  3.67459026  5.21471683
   0.00000000  3.69099587 10.41958750
   0.00000000  9.21339086  5.20632062
   0.00000000  9.22244637 10.41825215
   3.19638882  3.62549957  5.24894083
   3.19578205  3.68630661 10.39853325
   3.19146533  9.23585977  5.20619673
   3.19473040  9.22658231 10.41874793
   6.39254541  3.62549957  5.24894083
   6.39315219  3.68630661 10.39853325
   6.39746890  9.23585977  5.20619673
   6.39420383  9.22658231 10.41874793
   1.60973509  4.61441847  2.58648524
   1.59508716  4.62157792  7.81548849
   1.59642339 10.15228925  2.60061579
   1.59511202 10.15125182  7.81538658
   4.79446697  4.62768508  2.56378401
   4.79446697  4.62914467  7.80040223
   4.79446697 10.15395613  2.60048742
   4.79446697 10.15084607  7.81396592
   7.97919871  4.61441847  2.58648524
   7.99384664  4.62157792  7.81548849
   7.99251041 10.15228925  2.60061579
   7.99382178 10.15125182  7.81538658
   0.00000000  1.84967371  2.59920125
   0.00000000  1.84765594  7.81748796
   0.00000000  7.38083666  2.60078245
   0.00000000  7.38231234  7.81100039
   3.19602414  1.85366468  2.59602516
   3.19618475  1.83370698  7.82399696
   3.20357287  7.38768399  2.59658140
   3.19383086  7.39401389  7.81364002
   6.39291009  1.85366468  2.59602516
   6.39274949  1.83370698  7.82399696
   6.38536137  7.38768399  2.59658140
   6.39510337  7.39401389  7.81364002
   1.59587906  0.92624455  1.96195689
   1.59424548  0.92382750  7.17262055
   1.60026962  6.46189366  1.96113850
   1.59966225  6.46143016  7.16715790
   4.79446697  0.92767100  1.96378478
   4.79446697  0.92303755  7.16961577
   4.79446697  6.48421210  1.91966426
   4.79446697  6.48505618  7.18976318
   7.99305474  0.92624455  1.96195689
   7.99468832  0.92382750  7.17262055
   7.98866418  6.46189366  1.96113850
   7.98927155  6.46143016  7.16715790
   0.00000000  3.69750920  1.96489842
   0.00000000  3.69355894  7.16772992
   0.00000000  9.22655747  1.96026793
   0.00000000  9.22602149  7.17049519
   3.18792287  3.68713836  1.92811856
   3.18887853  3.67994480  7.19325154
   3.19463973  9.23648881  1.95895455
   3.19330911  9.23803151  7.17031467
   6.40101136  3.68713836  1.92811856
   6.40005570  3.67994480  7.19325154
   6.39429451  9.23648881  1.95895455
   6.39562512  9.23803151  7.17031467
   1.61897380  4.60746320  4.56249937
   1.59378264  4.61428883  9.77245213
   1.58760726 10.14526818  4.56400584
   1.59531133 10.14853084  9.77729873
   4.79446697  4.61415496  9.76270089
   4.79446697 10.14550456  4.56373085
   4.79446697 10.14640880  9.77664294
   7.96996000  4.60746320  4.56249937
   7.99515116  4.61428883  9.77245213
   8.00132654 10.14526818  4.56400584
   7.99362248 10.14853084  9.77729873
   0.00000000  1.84460028  4.56558411
   0.00000000  1.84641512  9.77862431
   0.00000000  7.36626776  4.56511046
   0.00000000  7.37838265  9.77475513
   3.18689025  1.81426947  4.56496266
   3.19632791  1.83372927  9.77753537
   3.18609127  7.40880557  4.56238432
   3.18832449  7.38638469  9.77140412
   6.40204399  1.81426947  4.56496266
   6.39260632  1.83372927  9.77753537
   6.40284297  7.40880557  4.56238432
   6.40060974  7.38638469  9.77140412
   4.79446697  4.65667981  4.52826581
 


--------------------------------------------------------------------------------------------------------


 k-point  1 :   0.0000 0.0000 0.0000  plane waves:   20059

 maximum and minimum number of plane-waves per node :      5019     5009

 maximum number of plane-waves:     20059
 maximum index in each direction: 
   IXMAX=   15   IYMAX=   18   IZMAX=   16
   IXMIN=  -15   IYMIN=  -18   IZMIN=  -16


 parallel 3D FFT for wavefunctions:
    minimum data exchange during FFTs selected (reduces bandwidth)
 parallel 3D FFT for charge:
    minimum data exchange during FFTs selected (reduces bandwidth)

 
 Radii for the augmentation spheres in the non-local exchange
 for species   1 augmentation radius   1.289 (default was   1.031)
       energy cutoff for augmentation   1600.0
 for species   2 augmentation radius   0.886 (default was   0.709)
       energy cutoff for augmentation   1600.0
 for species   3 augmentation radius   0.874 (default was   0.699)
       energy cutoff for augmentation   1600.0

 real space projection operators:
  total allocation   :      11940.52 KBytes
  max/ min on nodes  :       3062.32       2888.48

 Maximum index for augmentation-charges in exchange          301
  SETUP_FOCK is finished

 total amount of memory used by VASP MPI-rank0    56554. kBytes
=======================================================================

   base      :      30000. kBytes
   nonl-proj :       9871. kBytes
   fftplans  :       2626. kBytes
   grid      :       3862. kBytes
   one-center:        746. kBytes
   HF        :        129. kBytes
   nonlr-proj:       5714. kBytes
   wavefun   :       3606. kBytes
 
     INWAV:  cpu time    1.3924: real time    1.4619
 Broyden mixing: mesh for mixing (old mesh)
   NGX = 31   NGY = 37   NGZ = 33
  (NGX  = 96   NGY  =108   NGZ  =108)
  gives a total of  37851 points

 initial charge density was supplied:
 number of electron     863.0000120 magnetization       1.0000008
 charge density for first step will be calculated from the start-wavefunctions


--------------------------------------------------------------------------------------------------------


 Maximum index for augmentation-charges          338 (set IRDMAX)


--------------------------------------------------------------------------------------------------------


 initial charge from wavefunction
 First call to EWALD:  gamma=   0.171
 Maximum number of real-space cells 3x 3x 3
 Maximum number of reciprocal cells 3x 3x 3

    FEWALD:  cpu time    0.0027: real time    0.0027


--------------------------------------- Iteration      1(   1)  ---------------------------------------


    POTLOK:  cpu time    0.1143: real time    0.1145
    SETDIJ:  cpu time    0.2974: real time    0.2974
    TRIAL :  cpu time   34.9203: real time   34.9268
    CORREC:  cpu time    0.0006: real time    0.0006
    CHARGE:  cpu time    0.0230: real time    0.0230
    --------------------------------------------
      LOOP:  cpu time   35.3598: real time   35.4318

 eigenvalue-minimisations  :     0
 total energy-change (2. order) :-0.7302921E+03  (-0.1467296E-05)
 number of electron     863.0000494 magnetization       1.0000003
 augmentation part      420.7746404 magnetization       0.1191960

 Free energy of the ion-electron system (eV)
  ---------------------------------------------------
  alpha Z        PSCENC =      4694.96700777
  Ewald energy   TEWEN  =    -75813.88833560
  -Hartree energ DENC   =    -28104.66787522
  -exchange      EXHF   =      2766.07172385
  -V(xc)+E(xc)   XCENC  =      2209.19560730
  PAW double counting   =    109205.04751239  -124769.18522562
  entropy T*S    EENTRO =         0.00000000
  eigenvalues    EBANDS =     -6395.63575136
  atomic energy  EATOM  =    115477.80322858
  ---------------------------------------------------
  free energy    TOTEN  =      -730.29210790 eV

  energy without entropy =     -730.29210790  energy(sigma->0) =     -730.29210790
  exchange ACFDT corr.  =         0.00000000  see jH, gK, PRB 81, 115126


--------------------------------------------------------------------------------------------------------




--------------------------------------- Iteration      1(   2)  ---------------------------------------


    POTLOK:  cpu time    0.1132: real time    0.1132
    SETDIJ:  cpu time    0.2803: real time    0.2803
    TRIAL :  cpu time   33.8353: real time   33.8382
    CORREC:  cpu time    0.0005: real time    0.0005
    CHARGE:  cpu time    0.0179: real time    0.0179
    --------------------------------------------
      LOOP:  cpu time   34.2602: real time   34.2708

 eigenvalue-minimisations  :     0
 total energy-change (2. order) : 0.2671077E-06  (-0.2338976E-05)
 number of electron     863.0000494 magnetization       1.0000003
 augmentation part      420.7746408 magnetization       0.1191959

 Free energy of the ion-electron system (eV)
  ---------------------------------------------------
  alpha Z        PSCENC =      4694.96700777
  Ewald energy   TEWEN  =    -75813.88833560
  -Hartree energ DENC   =    -28104.66795992
  -exchange      EXHF   =      2766.07172439
  -V(xc)+E(xc)   XCENC  =      2209.19560966
  PAW double counting   =    109205.04652724  -124769.18421422
  entropy T*S    EENTRO =         0.00000000
  eigenvalues    EBANDS =     -6395.63569555
  atomic energy  EATOM  =    115477.80322858
  ---------------------------------------------------
  free energy    TOTEN  =      -730.29210764 eV

  energy without entropy =     -730.29210764  energy(sigma->0) =     -730.29210764
  exchange ACFDT corr.  =         0.00000000  see jH, gK, PRB 81, 115126


--------------------------------------------------------------------------------------------------------




--------------------------------------- Iteration      1(   3)  ---------------------------------------


    POTLOK:  cpu time    0.0690: real time    0.0691
    SETDIJ:  cpu time    0.2757: real time    0.2757
    TRIAL :  cpu time   33.9764: real time   33.9789
    CORREC:  cpu time    0.0004: real time    0.0004
    CHARGE:  cpu time    0.0185: real time    0.0185
    --------------------------------------------
      LOOP:  cpu time   34.3464: real time   34.3520

 eigenvalue-minimisations  :     0
 total energy-change (2. order) :-0.1450280E-06  (-0.1705479E-05)
 number of electron     863.0000494 magnetization       1.0000003
 augmentation part      420.7746408 magnetization       0.1191956

 Free energy of the ion-electron system (eV)
  ---------------------------------------------------
  alpha Z        PSCENC =      4694.96700777
  Ewald energy   TEWEN  =    -75813.88833560
  -Hartree energ DENC   =    -28104.66790987
  -exchange      EXHF   =      2766.07172252
  -V(xc)+E(xc)   XCENC  =      2209.19560726
  PAW double counting   =    109205.04698693  -124769.18467735
  entropy T*S    EENTRO =         0.00000000
  eigenvalues    EBANDS =     -6395.63573802
  atomic energy  EATOM  =    115477.80322858
  ---------------------------------------------------
  free energy    TOTEN  =      -730.29210778 eV

  energy without entropy =     -730.29210778  energy(sigma->0) =     -730.29210778
  exchange ACFDT corr.  =         0.00000000  see jH, gK, PRB 81, 115126


--------------------------------------------------------------------------------------------------------




--------------------------------------- Iteration      1(   4)  ---------------------------------------


    POTLOK:  cpu time    0.0884: real time    0.0884
    SETDIJ:  cpu time    0.2769: real time    0.2769
    TRIAL :  cpu time   34.4617: real time   34.4646
    CORREC:  cpu time    0.0003: real time    0.0003
    CHARGE:  cpu time    0.0180: real time    0.0180
    --------------------------------------------
      LOOP:  cpu time   34.8535: real time   34.8569

 eigenvalue-minimisations  :     0
 total energy-change (2. order) :-0.2027482E-06  (-0.1036435E-05)
 number of electron     863.0000494 magnetization       1.0000003
 augmentation part      420.7746413 magnetization       0.1191957

 Free energy of the ion-electron system (eV)
  ---------------------------------------------------
  alpha Z        PSCENC =      4694.96700777
  Ewald energy   TEWEN  =    -75813.88833560
  -Hartree energ DENC   =    -28104.66777503
  -exchange      EXHF   =      2766.07172340
  -V(xc)+E(xc)   XCENC  =      2209.19560391
  PAW double counting   =    109205.04757525  -124769.18526047
  entropy T*S    EENTRO =         0.00000000
  eigenvalues    EBANDS =     -6395.63587580
  atomic energy  EATOM  =    115477.80322858
  ---------------------------------------------------
  free energy    TOTEN  =      -730.29210798 eV

  energy without entropy =     -730.29210798  energy(sigma->0) =     -730.29210798
  exchange ACFDT corr.  =         0.00000000  see jH, gK, PRB 81, 115126


--------------------------------------------------------------------------------------------------------




--------------------------------------- Iteration      1(   5)  ---------------------------------------


    POTLOK:  cpu time    0.0718: real time    0.0718
    SETDIJ:  cpu time    0.2800: real time    0.2801
    TRIAL :  cpu time   34.6386: real time   34.6418
    CORREC:  cpu time    0.0030: real time    0.0030
    EDDIAG:  cpu time   33.5542: real time   33.5566
    CHARGE:  cpu time    0.0413: real time    0.0413
    --------------------------------------------
      LOOP:  cpu time   68.5958: real time   68.6044

 eigenvalue-minimisations  :     0
 total energy-change (2. order) :-0.1195876E-06  (-0.6817187E-06)
 number of electron     863.0000494 magnetization       1.0000003
 augmentation part      420.7746401 magnetization       0.1191954

 Free energy of the ion-electron system (eV)
  ---------------------------------------------------
  alpha Z        PSCENC =      4694.96700777
  Ewald energy   TEWEN  =    -75813.88833560
  -Hartree energ DENC   =    -28104.66815912
  -exchange      EXHF   =      2766.07172054
  -V(xc)+E(xc)   XCENC  =      2209.19561519
  PAW double counting   =    109205.04608617  -124769.18385001
  entropy T*S    EENTRO =         0.00000000
  eigenvalues    EBANDS =     -6395.63542870
  atomic energy  EATOM  =    115477.80322858
  ---------------------------------------------------
  free energy    TOTEN  =      -730.29210810 eV

  energy without entropy =     -730.29210810  energy(sigma->0) =     -730.29210810
  exchange ACFDT corr.  =         0.00000000  see jH, gK, PRB 81, 115126


--------------------------------------------------------------------------------------------------------


  average scaling for gradient   0.9786


 average (electrostatic) potential at core
  the test charge radii are     1.0314  0.7089  0.6991
  (the norm of the test charge is              1.0000)
       1 -55.1727       2 -55.1542       3 -55.1868       4 -55.1434       5 -55.1740
       6 -55.1495       7 -54.8415       8 -55.0688       9 -55.1727      10 -55.1542
      11 -55.1868      12 -55.1434      13 -55.3748      14 -55.1667      15 -55.1548
      16 -55.1449      17 -55.2865      18 -55.1126      19 -55.1053      20 -55.1321
      21 -55.2865      22 -55.1126      23 -55.1053      24 -55.1321      25 -55.1828
      26 -55.1826      27 -55.1409      28 -55.1522      29 -54.8416      30 -55.1737
      31 -55.1352      32 -55.1493      33 -55.1828      34 -55.1826      35 -55.1409
      36 -55.1522      37 -55.1705      38 -55.1840      39 -55.1480      40 -55.1627
      41 -55.1572      42 -55.1635      43 -55.1095      44 -55.1075      45 -55.1572
      46 -55.1635      47 -55.1095      48 -55.1075      49 -56.0490      50 -56.0732
      51 -56.0442      52 -56.0638      53 -56.0435      54 -56.0680      55 -55.9065
      56 -55.9592      57 -56.0490      58 -56.0732      59 -56.0442      60 -56.0638
      61 -56.0829      62 -56.1284      63 -56.0438      64 -56.0580      65 -55.9957
      66 -56.1086      67 -56.0203      68 -56.0386      69 -55.9957      70 -56.1086
      71 -56.0203      72 -56.0386      73 -56.4147      74 -56.0516      75 -56.0448
      76 -56.0443      77 -56.0108      78 -56.0340      79 -56.0422      80 -56.4147
      81 -56.0516      82 -56.0448      83 -56.0443      84 -56.1228      85 -56.0685
      86 -56.0745      87 -56.0455      88 -56.1045      89 -56.0465      90 -55.9888
      91 -56.0107      92 -56.1045      93 -56.0465      94 -55.9888      95 -56.0107
      96 -43.2043
 
 
 
 E-fermi :   4.4518     XC(G=0):  -9.0896     alpha+bet :-13.2963


 spin component 1

 k-point     1 :       0.0000    0.0000    0.0000
  band No.  band energies     occupation 
      1     -13.4967      1.00000
      2     -13.1559      1.00000
      3     -13.1465      1.00000
      4     -13.1252      1.00000
      5     -13.1139      1.00000
      6     -13.0993      1.00000
      7     -13.0792      1.00000
      8     -13.0536      1.00000
      9     -13.0284      1.00000
     10     -13.0177      1.00000
     11     -13.0129      1.00000
     12     -13.0117      1.00000
     13     -13.0028      1.00000
     14     -12.9994      1.00000
     15     -12.9832      1.00000
     16     -12.9711      1.00000
     17     -12.9663      1.00000
     18     -12.9648      1.00000
     19     -12.9593      1.00000
     20     -12.9501      1.00000
     21     -12.9500      1.00000
     22     -12.9452      1.00000
     23     -12.9399      1.00000
     24     -12.9356      1.00000
     25     -12.9338      1.00000
     26     -12.9269      1.00000
     27     -12.9248      1.00000
     28     -12.9224      1.00000
     29     -12.9216      1.00000
     30     -12.9209      1.00000
     31     -12.9175      1.00000
     32     -12.9157      1.00000
     33     -12.9112      1.00000
     34     -12.9076      1.00000
     35     -12.9064      1.00000
     36     -12.9061      1.00000
     37     -12.9030      1.00000
     38     -12.8999      1.00000
     39     -12.8930      1.00000
     40     -12.8908      1.00000
     41     -12.8876      1.00000
     42     -12.8805      1.00000
     43     -12.8718      1.00000
     44     -12.8650      1.00000
     45     -12.8565      1.00000
     46     -12.8534      1.00000
     47     -12.8157      1.00000
     48     -12.0271      1.00000
     49     -11.8797      1.00000
     50     -11.8412      1.00000
     51     -11.8301      1.00000
     52     -11.8190      1.00000
     53     -11.8146      1.00000
     54     -11.8013      1.00000
     55     -11.7900      1.00000
     56     -11.7820      1.00000
     57     -11.7704      1.00000
     58     -11.7654      1.00000
     59     -11.7595      1.00000
     60     -11.7588      1.00000
     61     -11.7564      1.00000
     62     -11.7556      1.00000
     63     -11.7523      1.00000
     64     -11.7458      1.00000
     65     -11.7402      1.00000
     66     -11.7368      1.00000
     67     -11.7361      1.00000
     68     -11.7342      1.00000
     69     -11.7310      1.00000
     70     -11.7310      1.00000
     71     -11.7205      1.00000
     72     -11.7201      1.00000
     73     -11.7189      1.00000
     74     -11.7150      1.00000
     75     -11.7129      1.00000
     76     -11.7115      1.00000
     77     -11.7107      1.00000
     78     -11.7077      1.00000
     79     -11.7057      1.00000
     80     -11.7051      1.00000
     81     -11.7012      1.00000
     82     -11.7007      1.00000
     83     -11.6998      1.00000
     84     -11.6988      1.00000
     85     -11.6965      1.00000
     86     -11.6953      1.00000
     87     -11.6945      1.00000
     88     -11.6933      1.00000
     89     -11.6920      1.00000
     90     -11.6880      1.00000
     91     -11.6870      1.00000
     92     -11.6868      1.00000
     93     -11.6855      1.00000
     94     -11.6824      1.00000
     95     -11.6808      1.00000
     96     -11.6796      1.00000
     97     -11.6757      1.00000
     98     -11.6742      1.00000
     99     -11.6740      1.00000
    100     -11.6707      1.00000
    101     -11.6691      1.00000
    102     -11.6685      1.00000
    103     -11.6660      1.00000
    104     -11.6653      1.00000
    105     -11.6610      1.00000
    106     -11.6589      1.00000
    107     -11.6529      1.00000
    108     -11.6518      1.00000
    109     -11.6513      1.00000
    110     -11.6486      1.00000
    111     -11.6442      1.00000
    112     -11.6430      1.00000
    113     -11.6420      1.00000
    114     -11.6406      1.00000
    115     -11.6394      1.00000
    116     -11.6392      1.00000
    117     -11.6360      1.00000
    118     -11.6347      1.00000
    119     -11.6332      1.00000
    120     -11.6292      1.00000
    121     -11.6292      1.00000
    122     -11.6236      1.00000
    123     -11.6227      1.00000
    124     -11.6189      1.00000
    125     -11.6164      1.00000
    126     -11.6157      1.00000
    127     -11.6131      1.00000
    128     -11.6116      1.00000
    129     -11.6055      1.00000
    130     -11.6041      1.00000
    131     -11.6033      1.00000
    132     -11.6008      1.00000
    133     -11.5987      1.00000
    134     -11.5981      1.00000
    135     -11.5961      1.00000
    136     -11.5907      1.00000
    137     -11.5887      1.00000
    138     -11.5853      1.00000
    139     -11.5835      1.00000
    140     -11.5813      1.00000
    141     -11.5774      1.00000
    142     -11.5739      1.00000
    143     -11.5720      1.00000
    144     -11.5715      1.00000
    145     -11.5710      1.00000
    146     -11.5696      1.00000
    147     -11.5670      1.00000
    148     -11.5648      1.00000
    149     -11.5623      1.00000
    150     -11.5598      1.00000
    151     -11.5577      1.00000
    152     -11.5565      1.00000
    153     -11.5557      1.00000
    154     -11.5538      1.00000
    155     -11.5519      1.00000
    156     -11.5517      1.00000
    157     -11.5499      1.00000
    158     -11.5486      1.00000
    159     -11.5470      1.00000
    160     -11.5450      1.00000
    161     -11.5447      1.00000
    162     -11.5435      1.00000
    163     -11.5410      1.00000
    164     -11.5381      1.00000
    165     -11.5360      1.00000
    166     -11.5350      1.00000
    167     -11.5340      1.00000
    168     -11.5324      1.00000
    169     -11.5308      1.00000
    170     -11.5292      1.00000
    171     -11.5288      1.00000
    172     -11.5271      1.00000
    173     -11.5257      1.00000
    174     -11.5247      1.00000
    175     -11.5231      1.00000
    176     -11.5204      1.00000
    177     -11.5192      1.00000
    178     -11.5158      1.00000
    179     -11.5149      1.00000
    180     -11.5130      1.00000
    181     -11.5128      1.00000
    182     -11.5114      1.00000
    183     -11.5101      1.00000
    184     -11.5088      1.00000
    185     -11.5084      1.00000
    186     -11.5073      1.00000
    187     -11.5033      1.00000
    188     -11.4999      1.00000
    189     -11.4975      1.00000
    190     -11.4964      1.00000
    191     -11.4953      1.00000
    192     -11.4941      1.00000
    193     -11.4920      1.00000
    194     -11.4885      1.00000
    195     -11.4876      1.00000
    196     -11.4860      1.00000
    197     -11.4842      1.00000
    198     -11.4810      1.00000
    199     -11.4801      1.00000
    200     -11.4787      1.00000
    201     -11.4778      1.00000
    202     -11.4759      1.00000
    203     -11.4737      1.00000
    204     -11.4718      1.00000
    205     -11.4718      1.00000
    206     -11.4691      1.00000
    207     -11.4678      1.00000
    208     -11.4661      1.00000
    209     -11.4632      1.00000
    210     -11.4616      1.00000
    211     -11.4594      1.00000
    212     -11.4580      1.00000
    213     -11.4557      1.00000
    214     -11.4534      1.00000
    215     -11.4521      1.00000
    216     -11.4513      1.00000
    217     -11.4503      1.00000
    218     -11.4494      1.00000
    219     -11.4416      1.00000
    220     -11.4389      1.00000
    221     -11.4379      1.00000
    222     -11.4360      1.00000
    223     -11.4358      1.00000
    224     -11.4334      1.00000
    225     -11.4318      1.00000
    226     -11.4310      1.00000
    227     -11.4233      1.00000
    228     -11.4204      1.00000
    229     -11.4183      1.00000
    230     -11.4137      1.00000
    231     -11.4056      1.00000
    232     -11.3942      1.00000
    233     -11.3912      1.00000
    234     -11.3862      1.00000
    235     -11.3839      1.00000
    236     -11.3756      1.00000
    237     -11.3420      1.00000
    238     -11.2678      1.00000
    239     -11.2493      1.00000
    240     -11.2348      1.00000
    241     -11.2337      1.00000
    242     -11.2201      1.00000
    243     -11.2033      1.00000
    244     -11.1916      1.00000
    245     -11.1882      1.00000
    246     -11.0429      1.00000
    247     -11.0054      1.00000
    248     -10.5684      1.00000
    249     -10.5549      1.00000
    250     -10.5522      1.00000
    251     -10.5419      1.00000
    252     -10.4442      1.00000
    253     -10.4039      1.00000
    254     -10.4012      1.00000
    255     -10.3765      1.00000
    256     -10.3614      1.00000
    257     -10.3377      1.00000
    258     -10.3284      1.00000
    259     -10.2067      1.00000
    260      -9.8895      1.00000
    261      -9.8352      1.00000
    262      -9.8330      1.00000
    263      -9.8297      1.00000
    264      -9.8204      1.00000
    265      -9.8163      1.00000
    266      -9.8146      1.00000
    267      -9.7930      1.00000
    268      -9.7193      1.00000
    269      -9.6119      1.00000
    270      -9.4871      1.00000
    271      -9.4645      1.00000
    272      -9.2592      1.00000
    273      -9.2333      1.00000
    274      -9.2282      1.00000
    275      -9.1792      1.00000
    276      -9.1721      1.00000
    277      -9.1516      1.00000
    278      -9.1510      1.00000
    279      -9.1393      1.00000
    280      -9.1357      1.00000
    281      -9.1315      1.00000
    282      -9.1212      1.00000
    283      -9.0932      1.00000
    284      -9.0036      1.00000
    285      -8.9784      1.00000
    286      -8.9548      1.00000
    287      -8.9488      1.00000
    288      -6.8824      1.00000
    289      -3.3766      1.00000
    290      -2.8997      1.00000
    291      -2.8898      1.00000
    292      -2.7463      1.00000
    293      -2.4903      1.00000
    294      -2.4726      1.00000
    295      -2.4047      1.00000
    296      -2.3956      1.00000
    297      -2.3900      1.00000
    298      -2.3686      1.00000
    299      -2.2626      1.00000
    300      -2.2401      1.00000
    301      -2.2351      1.00000
    302      -2.2251      1.00000
    303      -2.2123      1.00000
    304      -2.1921      1.00000
    305      -2.1640      1.00000
    306      -2.1621      1.00000
    307      -2.1543      1.00000
    308      -2.1415      1.00000
    309      -2.1350      1.00000
    310      -2.1238      1.00000
    311      -2.0861      1.00000
    312      -2.0700      1.00000
    313      -1.5076      1.00000
    314      -1.4975      1.00000
    315      -1.4847      1.00000
    316      -1.4711      1.00000
    317      -1.4505      1.00000
    318      -1.4481      1.00000
    319      -1.3956      1.00000
    320      -1.1124      1.00000
    321      -1.0928      1.00000
    322      -1.0836      1.00000
    323      -1.0663      1.00000
    324      -1.0088      1.00000
    325      -0.9918      1.00000
    326      -0.9899      1.00000
    327      -0.9580      1.00000
    328      -0.7208      1.00000
    329      -0.7073      1.00000
    330      -0.7013      1.00000
    331      -0.6234      1.00000
    332      -0.4129      1.00000
    333      -0.4003      1.00000
    334      -0.3854      1.00000
    335      -0.3544      1.00000
    336      -0.2960      1.00000
    337      -0.2952      1.00000
    338      -0.2932      1.00000
    339      -0.2838      1.00000
    340      -0.2771      1.00000
    341      -0.1379      1.00000
    342      -0.1186      1.00000
    343      -0.0672      1.00000
    344      -0.0292      1.00000
    345       0.1021      1.00000
    346       0.1248      1.00000
    347       0.2755      1.00000
    348       0.3104      1.00000
    349       0.9903      1.00000
    350       1.0160      1.00000
    351       1.0281      1.00000
    352       1.0859      1.00000
    353       1.1451      1.00000
    354       1.1462      1.00000
    355       1.1591      1.00000
    356       1.1706      1.00000
    357       1.1869      1.00000
    358       1.2199      1.00000
    359       1.2321      1.00000
    360       1.2688      1.00000
    361       1.2999      1.00000
    362       1.6559      1.00000
    363       1.6964      1.00000
    364       1.7496      1.00000
    365       1.7585      1.00000
    366       1.7699      1.00000
    367       1.7767      1.00000
    368       1.7772      1.00000
    369       1.7812      1.00000
    370       1.7979      1.00000
    371       1.8091      1.00000
    372       1.8912      1.00000
    373       1.9041      1.00000
    374       1.9247      1.00000
    375       1.9309      1.00000
    376       1.9508      1.00000
    377       1.9880      1.00000
    378       1.9890      1.00000
    379       2.0310      1.00000
    380       2.0350      1.00000
    381       2.0447      1.00000
    382       2.0482      1.00000
    383       2.0865      1.00000
    384       2.1338      1.00000
    385       2.1870      1.00000
    386       2.1900      1.00000
    387       2.2763      1.00000
    388       2.2930      1.00000
    389       2.2944      1.00000
    390       2.2968      1.00000
    391       2.3016      1.00000
    392       2.3031      1.00000
    393       2.3197      1.00000
    394       2.3256      1.00000
    395       2.3416      1.00000
    396       2.3473      1.00000
    397       2.4361      1.00000
    398       2.5151      1.00000
    399       2.5177      1.00000
    400       2.5421      1.00000
    401       2.5432      1.00000
    402       2.5957      1.00000
    403       2.6238      1.00000
    404       2.6285      1.00000
    405       2.6771      1.00000
    406       2.7789      1.00000
    407       2.7854      1.00000
    408       2.8039      1.00000
    409       2.8503      1.00000
    410       2.9411      1.00000
    411       2.9966      1.00000
    412       3.0078      1.00000
    413       3.0296      1.00000
    414       3.0705      1.00000
    415       3.0779      1.00000
    416       3.1024      1.00000
    417       3.1138      1.00000
    418       3.1857      1.00000
    419       3.2676      1.00000
    420       3.3233      1.00000
    421       3.3505      1.00000
    422       3.4908      1.00000
    423       3.6151      1.00000
    424       3.6315      1.00000
    425       3.6537      1.00000
    426       3.6611      1.00000
    427       3.7076      1.00000
    428       3.7422      1.00000
    429       3.8319      1.00000
    430       4.2165      1.00000
    431       4.2931      1.00000
    432       4.3244      1.00000
    433       7.7316      0.00000
    434      10.1598      0.00000
    435      10.1735      0.00000
    436      10.1789      0.00000
    437      10.1873      0.00000
    438      10.1970      0.00000
    439      10.2120      0.00000
    440      10.2674      0.00000
    441      10.6946      0.00000
    442      10.7339      0.00000
    443      10.7410      0.00000
    444      10.7501      0.00000
    445      10.7571      0.00000
    446      10.7675      0.00000
    447      10.7686      0.00000
    448      10.7996      0.00000
    449      10.8214      0.00000
    450      10.8323      0.00000
    451      10.8546      0.00000
    452      10.9022      0.00000
    453      10.9504      0.00000
    454      11.1393      0.00000
    455      11.1536      0.00000
    456      11.1786      0.00000
    457      11.1895      0.00000
    458      11.2356      0.00000
    459      11.2430      0.00000
    460      11.2532      0.00000
    461      11.3901      0.00000
    462      11.4847      0.00000
    463      11.5616      0.00000
    464      11.5775      0.00000
    465      11.6208      0.00000
    466      11.7068      0.00000
    467      11.9176      0.00000
    468      11.9256      0.00000
    469      11.9513      0.00000
    470      11.9562      0.00000
    471      11.9774      0.00000
    472      11.9899      0.00000
    473      12.1044      0.00000
    474      12.1698      0.00000
    475      12.1953      0.00000
    476      12.2131      0.00000
    477      12.2425      0.00000
    478      12.3386      0.00000
    479      12.3634      0.00000
    480      12.3748      0.00000
    481      12.6185      0.00000
    482      13.0231      0.00000
    483      13.0361      0.00000
    484      13.2103      0.00000
    485      13.2112      0.00000
    486      13.2351      0.00000
    487      13.2525      0.00000
    488      13.2694      0.00000
    489      13.2703      0.00000
    490      13.3851      0.00000
    491      13.4439      0.00000
    492      13.5952      0.00000
    493      13.6664      0.00000
    494      13.7361      0.00000
    495      13.7793      0.00000
    496      13.7806      0.00000
    497      13.7975      0.00000
    498      13.7978      0.00000
    499      13.8150      0.00000
    500      13.8165      0.00000
    501      13.8484      0.00000
    502      13.8676      0.00000
    503      13.8747      0.00000
    504      14.0355      0.00000
    505      14.0492      0.00000
    506      14.0548      0.00000
    507      14.0554      0.00000
    508      14.0684      0.00000
    509      14.0762      0.00000
    510      14.0989      0.00000
    511      14.1205      0.00000
    512      14.1727      0.00000
    513      14.2020      0.00000
    514      14.2218      0.00000
    515      14.2402      0.00000
    516      14.5003      0.00000
    517      14.5071      0.00000
    518      14.5760      0.00000
    519      14.6322      0.00000
    520      14.6473      0.00000
    521      14.6842      0.00000
    522      14.7140      0.00000
    523      14.7401      0.00000
    524      14.8068      0.00000
    525      14.8173      0.00000
    526      15.0772      0.00000
    527      15.4620      0.00000
    528      15.4960      0.00000
    529      15.5172      0.00000
    530      15.5340      0.00000
    531      15.5649      0.00000
    532      15.6733      0.00000
    533      15.6798      0.00000
    534      15.6900      0.00000
    535      15.7064      0.00000
    536      15.8514      0.00000
    537      15.8607      0.00000
    538      15.8673      0.00000
    539      15.8854      0.00000
    540      15.8873      0.00000
    541      15.9165      0.00000
    542      15.9317      0.00000
    543      15.9403      0.00000
    544      15.9690      0.00000
    545      16.0043      0.00000
    546      16.0128      0.00000
    547      16.0172      0.00000
    548      16.0367      0.00000
    549      16.0480      0.00000
    550      16.0497      0.00000
    551      16.0603      0.00000
    552      16.0940      0.00000
    553      16.1044      0.00000
    554      16.1406      0.00000
    555      16.1445      0.00000
    556      16.1698      0.00000
    557      16.1761      0.00000
    558      16.2419      0.00000
    559      16.2801      0.00000
    560      16.3477      0.00000
    561      16.3558      0.00000
    562      16.3770      0.00000
    563      16.4123      0.00000
    564      16.4418      0.00000
    565      16.4451      0.00000
    566      16.4840      0.00000
    567      16.5115      0.00000
    568      16.5210      0.00000
    569      16.5401      0.00000
    570      16.5681      0.00000
    571      16.7385      0.00000
    572      16.8348      0.00000
    573      16.8573      0.00000
    574      16.8656      0.00000
    575      16.8911      0.00000
    576      16.8982      0.00000
    577      16.9026      0.00000
    578      17.0454      0.00000
    579      17.3228      0.00000
    580      17.4347      0.00000
    581      17.5204      0.00000
    582      17.5444      0.00000
    583      17.7657      0.00000
    584      17.7880      0.00000
    585      17.8285      0.00000
    586      17.8507      0.00000
    587      17.8533      0.00000
    588      17.8701      0.00000
    589      17.8919      0.00000
    590      17.9288      0.00000
    591      17.9697      0.00000
    592      17.9697      0.00000
    593      18.0053      0.00000
    594      18.0222      0.00000
    595      18.0378      0.00000
    596      18.0636      0.00000
    597      18.4104      0.00000
    598      18.4153      0.00000
    599      18.4194      0.00000
    600      18.4281      0.00000
    601      18.4292      0.00000
    602      18.4513      0.00000
    603      18.4602      0.00000
    604      18.5123      0.00000
    605      18.5436      0.00000
    606      18.5892      0.00000
    607      18.6594      0.00000
    608      18.9294      0.00000
    609      18.9423      0.00000
    610      18.9454      0.00000
    611      19.0084      0.00000
    612      19.0182      0.00000
    613      19.0740      0.00000
    614      19.0886      0.00000
    615      19.0902      0.00000
    616      19.2098      0.00000

 spin component 2

 k-point     1 :       0.0000    0.0000    0.0000
  band No.  band energies     occupation 
      1     -13.4831      1.00000
      2     -13.1424      1.00000
      3     -13.1378      1.00000
      4     -13.0957      1.00000
      5     -13.0891      1.00000
      6     -13.0828      1.00000
      7     -13.0709      1.00000
      8     -13.0152      1.00000
      9     -13.0082      1.00000
     10     -13.0066      1.00000
     11     -13.0038      1.00000
     12     -12.9957      1.00000
     13     -12.9824      1.00000
     14     -12.9757      1.00000
     15     -12.9733      1.00000
     16     -12.9627      1.00000
     17     -12.9579      1.00000
     18     -12.9499      1.00000
     19     -12.9471      1.00000
     20     -12.9438      1.00000
     21     -12.9391      1.00000
     22     -12.9347      1.00000
     23     -12.9340      1.00000
     24     -12.9323      1.00000
     25     -12.9270      1.00000
     26     -12.9255      1.00000
     27     -12.9233      1.00000
     28     -12.9201      1.00000
     29     -12.9200      1.00000
     30     -12.9182      1.00000
     31     -12.9128      1.00000
     32     -12.9101      1.00000
     33     -12.9089      1.00000
     34     -12.9062      1.00000
     35     -12.9052      1.00000
     36     -12.9043      1.00000
     37     -12.9001      1.00000
     38     -12.8957      1.00000
     39     -12.8908      1.00000
     40     -12.8907      1.00000
     41     -12.8848      1.00000
     42     -12.8784      1.00000
     43     -12.8702      1.00000
     44     -12.8541      1.00000
     45     -12.8517      1.00000
     46     -12.8449      1.00000
     47     -12.8163      1.00000
     48     -11.9057      1.00000
     49     -11.8305      1.00000
     50     -11.8301      1.00000
     51     -11.8269      1.00000
     52     -11.8131      1.00000
     53     -11.8051      1.00000
     54     -11.7874      1.00000
     55     -11.7805      1.00000
     56     -11.7722      1.00000
     57     -11.7640      1.00000
     58     -11.7588      1.00000
     59     -11.7574      1.00000
     60     -11.7532      1.00000
     61     -11.7518      1.00000
     62     -11.7492      1.00000
     63     -11.7466      1.00000
     64     -11.7442      1.00000
     65     -11.7366      1.00000
     66     -11.7351      1.00000
     67     -11.7332      1.00000
     68     -11.7287      1.00000
     69     -11.7267      1.00000
     70     -11.7254      1.00000
     71     -11.7194      1.00000
     72     -11.7191      1.00000
     73     -11.7170      1.00000
     74     -11.7148      1.00000
     75     -11.7110      1.00000
     76     -11.7106      1.00000
     77     -11.7105      1.00000
     78     -11.7075      1.00000
     79     -11.7055      1.00000
     80     -11.7045      1.00000
     81     -11.7002      1.00000
     82     -11.6998      1.00000
     83     -11.6994      1.00000
     84     -11.6983      1.00000
     85     -11.6951      1.00000
     86     -11.6949      1.00000
     87     -11.6933      1.00000
     88     -11.6927      1.00000
     89     -11.6903      1.00000
     90     -11.6876      1.00000
     91     -11.6862      1.00000
     92     -11.6860      1.00000
     93     -11.6839      1.00000
     94     -11.6807      1.00000
     95     -11.6798      1.00000
[...]
    264      -9.8119      1.00000
    265      -9.8080      1.00000
    266      -9.7994      1.00000
    267      -9.7924      1.00000
    268      -9.7026      1.00000
    269      -9.5981      1.00000
    270      -9.4842      1.00000
    271      -9.4400      1.00000
    272      -9.2324      1.00000
    273      -9.2273      1.00000
    274      -9.1740      1.00000
    275      -9.1689      1.00000
    276      -9.1688      1.00000
    277      -9.1509      1.00000
    278      -9.1492      1.00000
    279      -9.1344      1.00000
    280      -9.1332      1.00000
    281      -9.1267      1.00000
    282      -9.1097      1.00000
    283      -9.0877      1.00000
    284      -8.9995      1.00000
    285      -8.9621      1.00000
    286      -8.9478      1.00000
    287      -8.9461      1.00000
    288      -6.1387      1.00000
    289      -3.3720      1.00000
    290      -2.8959      1.00000
    291      -2.8828      1.00000
    292      -2.7381      1.00000
    293      -2.4867      1.00000
    294      -2.4670      1.00000
    295      -2.4007      1.00000
    296      -2.3741      1.00000
    297      -2.3710      1.00000
    298      -2.3590      1.00000
    299      -2.2518      1.00000
    300      -2.2318      1.00000
    301      -2.2308      1.00000
    302      -2.2049      1.00000
    303      -2.1978      1.00000
    304      -2.1849      1.00000
    305      -2.1563      1.00000
    306      -2.1537      1.00000
    307      -2.1522      1.00000
    308      -2.1319      1.00000
    309      -2.0974      1.00000
    310      -2.0534      1.00000
    311      -2.0425      1.00000
    312      -1.9987      1.00000
    313      -1.4959      1.00000
    314      -1.4851      1.00000
    315      -1.4747      1.00000
    316      -1.4414      1.00000
    317      -1.4289      1.00000
    318      -1.3864      1.00000
    319      -1.3786      1.00000
    320      -1.1019      1.00000
    321      -1.0770      1.00000
    322      -1.0689      1.00000
    323      -1.0569      1.00000
    324      -1.0010      1.00000
    325      -0.9741      1.00000
    326      -0.9052      1.00000
    327      -0.8946      1.00000
    328      -0.7185      1.00000
    329      -0.6968      1.00000
    330      -0.6905      1.00000
    331      -0.5875      1.00000
    332      -0.4023      1.00000
    333      -0.3809      1.00000
    334      -0.3611      1.00000
    335      -0.3294      1.00000
    336      -0.2912      1.00000
    337      -0.2875      1.00000
    338      -0.2716      1.00000
    339      -0.2432      1.00000
    340      -0.2208      1.00000
    341      -0.1087      1.00000
    342      -0.0491      1.00000
    343      -0.0157      1.00000
    344      -0.0062      1.00000
    345       0.1154      1.00000
    346       0.1432      1.00000
    347       0.3838      1.00000
    348       0.4134      1.00000
    349       1.0025      1.00000
    350       1.0257      1.00000
    351       1.0306      1.00000
    352       1.0982      1.00000
    353       1.1585      1.00000
    354       1.1603      1.00000
    355       1.1892      1.00000
    356       1.2068      1.00000
    357       1.2070      1.00000
    358       1.2569      1.00000
    359       1.2569      1.00000
    360       1.3181      1.00000
    361       1.3368      1.00000
    362       1.6694      1.00000
    363       1.7074      1.00000
    364       1.7681      1.00000
    365       1.7730      1.00000
    366       1.7824      1.00000
    367       1.7878      1.00000
    368       1.8054      1.00000
    369       1.8140      1.00000
    370       1.8437      1.00000
    371       1.8657      1.00000
    372       1.8995      1.00000
    373       1.9339      1.00000
    374       1.9555      1.00000
    375       1.9608      1.00000
    376       1.9922      1.00000
    377       1.9957      1.00000
    378       2.0103      1.00000
    379       2.0412      1.00000
    380       2.0464      1.00000
    381       2.0625      1.00000
    382       2.0636      1.00000
    383       2.0995      1.00000
    384       2.1979      1.00000
    385       2.2011      1.00000
    386       2.2486      1.00000
    387       2.2928      1.00000
    388       2.2999      1.00000
    389       2.3033      1.00000
    390       2.3134      1.00000
    391       2.3157      1.00000
    392       2.3204      1.00000
    393       2.3267      1.00000
    394       2.3364      1.00000
    395       2.3495      1.00000
    396       2.4423      1.00000
    397       2.4498      1.00000
    398       2.5264      1.00000
    399       2.5322      1.00000
    400       2.5574      1.00000
    401       2.5591      1.00000
    402       2.5991      1.00000
    403       2.6334      1.00000
    404       2.6660      1.00000
    405       2.6972      1.00000
    406       2.8023      1.00000
    407       2.8057      1.00000
    408       2.8154      1.00000
    409       2.9574      1.00000
    410       2.9908      1.00000
    411       3.0113      1.00000
    412       3.0435      1.00000
    413       3.0827      1.00000
    414       3.0907      1.00000
    415       3.1119      1.00000
    416       3.1136      1.00000
    417       3.1279      1.00000
    418       3.2767      1.00000
    419       3.3481      1.00000
    420       3.3817      1.00000
    421       3.3914      1.00000
    422       3.4929      1.00000
    423       3.6310      1.00000
    424       3.6560      1.00000
    425       3.6639      1.00000
    426       3.6695      1.00000
    427       3.7820      1.00000
    428       3.8945      1.00000
    429       4.1153      1.00000
    430       4.3408      1.00000
    431       4.3824      1.00000
    432       5.9458      0.00000
    433       7.7446      0.00000
    434      10.1624      0.00000
    435      10.1733      0.00000
    436      10.1811      0.00000
    437      10.1891      0.00000
    438      10.1999      0.00000
    439      10.2154      0.00000
    440      10.2839      0.00000
    441      10.7101      0.00000
    442      10.7408      0.00000
    443      10.7483      0.00000
    444      10.7549      0.00000
    445      10.7589      0.00000
    446      10.7700      0.00000
    447      10.7764      0.00000
    448      10.8064      0.00000
    449      10.8322      0.00000
    450      10.8459      0.00000
    451      10.8653      0.00000
    452      10.9607      0.00000
    453      10.9640      0.00000
    454      11.1405      0.00000
    455      11.1544      0.00000
    456      11.1829      0.00000
    457      11.1951      0.00000
    458      11.2493      0.00000
    459      11.2553      0.00000
    460      11.2560      0.00000
    461      11.4003      0.00000
    462      11.4877      0.00000
    463      11.5737      0.00000
    464      11.5946      0.00000
    465      11.6253      0.00000
    466      11.7275      0.00000
    467      11.9225      0.00000
    468      11.9297      0.00000
    469      11.9587      0.00000
    470      11.9755      0.00000
    471      11.9987      0.00000
    472      12.0049      0.00000
    473      12.1151      0.00000
    474      12.1750      0.00000
    475      12.2176      0.00000
    476      12.2197      0.00000
    477      12.2471      0.00000
    478      12.3446      0.00000
    479      12.3740      0.00000
    480      12.3763      0.00000
    481      12.6820      0.00000
    482      13.0365      0.00000
    483      13.0469      0.00000
    484      13.2225      0.00000
    485      13.2269      0.00000
    486      13.2469      0.00000
    487      13.2615      0.00000
    488      13.2889      0.00000
    489      13.3108      0.00000
    490      13.3885      0.00000
    491      13.4474      0.00000
    492      13.6177      0.00000
    493      13.6682      0.00000
    494      13.7404      0.00000
    495      13.7828      0.00000
    496      13.7878      0.00000
    497      13.8009      0.00000
    498      13.8163      0.00000
    499      13.8203      0.00000
    500      13.8386      0.00000
    501      13.8511      0.00000
    502      13.8745      0.00000
    503      13.9333      0.00000
    504      14.0369      0.00000
    505      14.0568      0.00000
    506      14.0594      0.00000
    507      14.0636      0.00000
    508      14.0900      0.00000
    509      14.1011      0.00000
    510      14.1209      0.00000
    511      14.1240      0.00000
    512      14.1801      0.00000
    513      14.2589      0.00000
    514      14.2600      0.00000
    515      14.2793      0.00000
    516      14.5231      0.00000
    517      14.5268      0.00000
    518      14.5783      0.00000
    519      14.6344      0.00000
    520      14.6513      0.00000
    521      14.6957      0.00000
    522      14.7492      0.00000
    523      14.7565      0.00000
    524      14.8253      0.00000
    525      14.9244      0.00000
    526      15.0883      0.00000
    527      15.4673      0.00000
    528      15.5010      0.00000
    529      15.5593      0.00000
    530      15.5659      0.00000
    531      15.5799      0.00000
    532      15.6785      0.00000
    533      15.6935      0.00000
    534      15.7068      0.00000
    535      15.7307      0.00000
    536      15.8661      0.00000
    537      15.8715      0.00000
    538      15.8880      0.00000
    539      15.8889      0.00000
    540      15.8934      0.00000
    541      15.9261      0.00000
    542      15.9462      0.00000
    543      15.9621      0.00000
    544      15.9749      0.00000
    545      16.0074      0.00000
    546      16.0207      0.00000
    547      16.0330      0.00000
    548      16.0396      0.00000
    549      16.0505      0.00000
    550      16.0566      0.00000
    551      16.0932      0.00000
    552      16.1069      0.00000
    553      16.1240      0.00000
    554      16.1512      0.00000
    555      16.1744      0.00000
    556      16.1791      0.00000
    557      16.2489      0.00000
    558      16.2826      0.00000
    559      16.2923      0.00000
    560      16.3580      0.00000
    561      16.3690      0.00000
    562      16.3837      0.00000
    563      16.4461      0.00000
    564      16.4478      0.00000
    565      16.4554      0.00000
    566      16.5008      0.00000
    567      16.5190      0.00000
    568      16.5283      0.00000
    569      16.5549      0.00000
    570      16.5755      0.00000
    571      16.7480      0.00000
    572      16.8556      0.00000
    573      16.8599      0.00000
    574      16.8704      0.00000
    575      16.8996      0.00000
    576      16.9010      0.00000
    577      16.9162      0.00000
    578      17.0614      0.00000
    579      17.3317      0.00000
    580      17.4474      0.00000
    581      17.5318      0.00000
    582      17.5514      0.00000
    583      17.8012      0.00000
    584      17.8029      0.00000
    585      17.8534      0.00000
    586      17.8734      0.00000
    587      17.8816      0.00000
    588      17.8877      0.00000
    589      17.8985      0.00000
    590      17.9519      0.00000
    591      17.9760      0.00000
    592      17.9762      0.00000
    593      18.0083      0.00000
    594      18.0239      0.00000
    595      18.0508      0.00000
    596      18.1463      0.00000
    597      18.4132      0.00000
    598      18.4214      0.00000
    599      18.4317      0.00000
    600      18.4317      0.00000
    601      18.4337      0.00000
    602      18.4746      0.00000
    603      18.4820      0.00000
    604      18.5286      0.00000
    605      18.5607      0.00000
    606      18.6541      0.00000
    607      18.6670      0.00000
    608      18.9351      0.00000
    609      18.9472      0.00000
    610      18.9493      0.00000
    611      19.0125      0.00000
    612      19.0268      0.00000
    613      19.0967      0.00000
    614      19.1117      0.00000
    615      19.1172      0.00000
    616      19.2202      0.00000


--------------------------------------------------------------------------------------------------------


 soft charge-density along one line, spin component           1
         0         1         2         3         4         5         6         7         8         9
 total charge-density along one line
 
 soft charge-density along one line, spin component           2
         0         1         2         3         4         5         6         7         8         9
 total charge-density along one line
 
 pseudopotential strength for first ion, spin component:           1
 -8.256  -0.000   0.001   0.005  -0.000  -1.650   0.000  -0.000
 -0.000  -8.257   0.002  -0.001  -0.002   0.000  -1.650  -0.001
  0.001   0.002  -8.260  -0.000   0.000  -0.000  -0.001  -1.646
  0.005  -0.001  -0.000  -8.258  -0.000  -0.004   0.000   0.000
 -0.000  -0.002   0.000  -0.000  -8.256   0.000   0.000  -0.000
 -1.650   0.000  -0.000  -0.004   0.000   6.064  -0.000   0.000
  0.000  -1.650  -0.001   0.000   0.000  -0.000   6.064   0.000
 -0.000  -0.001  -1.646   0.000  -0.000   0.000   0.000   6.061
 -0.004   0.000   0.000  -1.649  -0.000   0.003  -0.000  -0.000
  0.000   0.000  -0.000  -0.000  -1.650  -0.000   0.001   0.000
 -0.000   0.000  -0.000  -0.000  -0.000   0.000  -0.001  -0.000
  0.000  -0.001  -0.000   0.000  -0.000  -0.000   0.001  -0.000
 -0.001  -0.004  -0.000  -0.000   0.005   0.000   0.004  -0.000
 -0.000   0.001   0.007  -0.000  -0.000  -0.000  -0.000  -0.006
  0.006  -0.000   0.000  -0.004  -0.000  -0.005  -0.000  -0.000
  0.001   0.014   0.000   0.000  -0.020  -0.000  -0.011   0.001
  0.000  -0.001  -0.025   0.000   0.000   0.000  -0.001   0.020
 -0.021   0.000  -0.000   0.015  -0.000   0.016   0.000  -0.000
 pseudopotential strength for first ion, spin component:           2
 -8.255  -0.000   0.001   0.004   0.000  -1.650   0.000  -0.000
 -0.000  -8.257   0.002  -0.001  -0.002   0.000  -1.650  -0.001
  0.001   0.002  -8.260  -0.000   0.000  -0.000  -0.001  -1.647
  0.004  -0.001  -0.000  -8.257  -0.000  -0.003   0.000   0.000
  0.000  -0.002   0.000  -0.000  -8.255  -0.000   0.000  -0.000
 -1.650   0.000  -0.000  -0.003  -0.000   6.065  -0.000   0.000
  0.000  -1.650  -0.001   0.000   0.000  -0.000   6.065   0.000
 -0.000  -0.001  -1.647   0.000  -0.000   0.000   0.000   6.061
 -0.003   0.000   0.000  -1.650   0.000   0.002  -0.000  -0.000
 -0.000   0.000  -0.000   0.000  -1.650   0.000   0.000   0.000
 -0.000   0.000  -0.000   0.000  -0.000   0.000  -0.001  -0.000
  0.000  -0.001  -0.000   0.000  -0.000  -0.000   0.001   0.000
 -0.001  -0.004  -0.000   0.000   0.005   0.000   0.004  -0.000
  0.000   0.001   0.007  -0.000   0.000  -0.000  -0.000  -0.006
  0.006   0.000   0.000  -0.004  -0.000  -0.005  -0.000  -0.000
  0.001   0.014   0.000  -0.000  -0.020  -0.000  -0.011   0.001
 -0.000  -0.001  -0.025   0.000  -0.000   0.000  -0.001   0.020
 -0.021  -0.000  -0.000   0.014  -0.000   0.015   0.000  -0.000
 total augmentation occupancy for first ion, spin component:           1
  2.000  -0.000  -0.000  -0.003   0.000   0.018   0.000  -0.000  -0.012   0.000   0.000  -0.000  -0.000  -0.000   0.026  -0.000
 -0.000   1.998   0.000   0.000  -0.003   0.000   0.009   0.000   0.000  -0.012   0.000   0.000  -0.018   0.000  -0.000  -0.003
 -0.000   0.000   2.002   0.000   0.000  -0.000   0.000   0.024   0.000   0.000  -0.002  -0.000   0.001   0.030  -0.000   0.000
 -0.003   0.000   0.000   1.998  -0.000  -0.012   0.000   0.000   0.008  -0.000  -0.000  -0.000  -0.000   0.000  -0.017  -0.000
  0.000  -0.003   0.000  -0.000   2.001   0.000  -0.012   0.000  -0.000   0.018  -0.001  -0.000   0.026   0.000   0.001   0.004
  0.018   0.000  -0.000  -0.012   0.000   0.102   0.001   0.000  -0.039   0.000  -0.000   0.000  -0.003   0.000   0.218  -0.000
  0.000   0.009   0.000   0.000  -0.012   0.001   0.070   0.001   0.000  -0.040   0.005   0.000  -0.153   0.001  -0.001  -0.004
 -0.000   0.000   0.024   0.000   0.000   0.000   0.001   0.127   0.000   0.001  -0.009  -0.000   0.002   0.259  -0.001   0.000
 -0.012   0.000   0.000   0.008  -0.000  -0.039   0.000   0.000   0.069  -0.001  -0.001  -0.000  -0.000   0.002  -0.152  -0.000
  0.000  -0.012   0.000  -0.000   0.018   0.000  -0.040   0.001  -0.001   0.101  -0.002  -0.000   0.222   0.000   0.007   0.006
  0.000   0.000  -0.002  -0.000  -0.001  -0.000   0.005  -0.009  -0.001  -0.002   1.247   0.058  -0.012   0.003   0.003  -0.000
 -0.000   0.000  -0.000  -0.000  -0.000   0.000   0.000  -0.000  -0.000  -0.000   0.058   0.003  -0.000  -0.000   0.000  -0.000
 -0.000  -0.018   0.001  -0.000   0.026  -0.003  -0.153   0.002  -0.000   0.222  -0.012  -0.000   1.063   0.015   0.002   0.030
 -0.000   0.000   0.030   0.000   0.000   0.000   0.001   0.259   0.002   0.000   0.003  -0.000   0.015   1.026  -0.003   0.000
  0.026  -0.000  -0.000  -0.017   0.001   0.218  -0.001  -0.001  -0.152   0.007   0.003   0.000   0.002  -0.003   1.057   0.000
 -0.000  -0.003   0.000  -0.000   0.004  -0.000  -0.004   0.000  -0.000   0.006  -0.000  -0.000   0.030   0.000   0.000   0.001
 -0.000  -0.000   0.005   0.000   0.000  -0.000   0.000   0.007   0.000   0.000  -0.000  -0.000   0.000   0.029  -0.000   0.000
  0.004  -0.000  -0.000  -0.003   0.000   0.006  -0.000  -0.000  -0.004   0.000   0.000   0.000   0.000  -0.000   0.030   0.000
 total augmentation occupancy for first ion, spin component:           2
  0.000  -0.000  -0.000   0.000  -0.000   0.000  -0.000  -0.000  -0.000   0.000   0.000   0.000   0.000  -0.000   0.000  -0.000
 -0.000  -0.000   0.000   0.000  -0.000  -0.000  -0.000   0.000   0.000  -0.000   0.000  -0.000   0.000  -0.000  -0.000  -0.000
 -0.000   0.000  -0.000   0.000  -0.000  -0.000   0.000   0.000   0.000  -0.000  -0.000  -0.000   0.000   0.000  -0.000  -0.000
  0.000   0.000   0.000   0.000  -0.000  -0.000   0.000   0.000   0.000  -0.000  -0.000  -0.000  -0.000   0.000  -0.000  -0.000
 -0.000  -0.000  -0.000  -0.000   0.000   0.000  -0.000  -0.000  -0.000   0.000   0.000   0.000   0.000  -0.000   0.000   0.000
  0.000  -0.000  -0.000  -0.000   0.000   0.000  -0.000   0.000  -0.001   0.000   0.001  -0.000   0.000  -0.000   0.002  -0.000
 -0.000  -0.000   0.000   0.000  -0.000  -0.000   0.000   0.000   0.000  -0.000   0.000  -0.000   0.000   0.000  -0.000  -0.000
 -0.000   0.000   0.000   0.000  -0.000   0.000   0.000   0.000  -0.000  -0.000  -0.000  -0.000  -0.000   0.000   0.000  -0.000
 -0.000   0.000   0.000   0.000  -0.000  -0.001   0.000  -0.000   0.000  -0.000  -0.001  -0.000  -0.000   0.000  -0.002  -0.000
  0.000  -0.000  -0.000  -0.000   0.000   0.000  -0.000  -0.000  -0.000   0.000   0.000   0.000   0.000  -0.000   0.001   0.000
  0.000   0.000  -0.000  -0.000   0.000   0.001   0.000  -0.000  -0.001   0.000  -0.001   0.000  -0.000   0.000   0.001   0.000
  0.000  -0.000  -0.000  -0.000   0.000  -0.000  -0.000  -0.000  -0.000   0.000   0.000   0.000   0.000  -0.000   0.000   0.000
  0.000   0.000   0.000  -0.000   0.000   0.000   0.000  -0.000  -0.000   0.000  -0.000   0.000  -0.001   0.000  -0.000   0.000
 -0.000  -0.000   0.000   0.000  -0.000  -0.000   0.000   0.000   0.000  -0.000   0.000  -0.000   0.000  -0.000  -0.001  -0.000
  0.000  -0.000  -0.000  -0.000   0.000   0.002  -0.000   0.000  -0.002   0.001   0.001   0.000  -0.000  -0.001   0.004   0.000
 -0.000  -0.000  -0.000  -0.000   0.000  -0.000  -0.000  -0.000  -0.000   0.000   0.000   0.000   0.000  -0.000   0.000   0.000
 -0.000   0.000   0.000   0.000  -0.000  -0.000   0.000   0.000   0.000  -0.000  -0.000  -0.000  -0.000   0.000  -0.000  -0.000
  0.000  -0.000  -0.000  -0.000   0.000   0.000  -0.000  -0.000  -0.000   0.000   0.000   0.000   0.000  -0.000   0.000   0.000


------------------------ aborting loop because EDIFF is reached ----------------------------------------


    FORLOC:  cpu time    0.0070: real time    0.0070
    FORHF :  cpu time   89.6832: real time   89.6905
    FORNL :  cpu time    0.5067: real time    0.5067
